 vasp.5.3.2 13Sep12 (build Nov  1 2013 16:31:47) complex                        
  
 executed on             LinuxIFC date 2014.07.08  09:47:25
 running on   16 total cores
 distrk:  each k-point on   16 cores,    1 groups
 distr:  one band on NCORES_PER_BAND=   1 cores,   16 groups


--------------------------------------------------------------------------------------------------------


 INCAR:
 POTCAR:   PAW_GGA Pt 05Jan2001                   
 POTCAR:   PAW_GGA Zn 03Mar1998                   
 POTCAR:   PAW_GGA C 05Jan2001                    
 POTCAR:   PAW_GGA O 05Jan2001                    
 POTCAR:   PAW_GGA H 07Jul1998                    

 ----------------------------------------------------------------------------- 
|                                                                             |
|           W    W    AA    RRRRR   N    N  II  N    N   GGGG   !!!           |
|           W    W   A  A   R    R  NN   N  II  NN   N  G    G  !!!           |
|           W    W  A    A  R    R  N N  N  II  N N  N  G       !!!           |
|           W WW W  AAAAAA  RRRRR   N  N N  II  N  N N  G  GGG   !            |
|           WW  WW  A    A  R   R   N   NN  II  N   NN  G    G                |
|           W    W  A    A  R    R  N    N  II  N    N   GGGG   !!!           |
|                                                                             |
|      For optimal performance we recommend that you set                      |
|        NPAR = 4 - approx SQRT( number of cores)                             |
|      (number of cores/NPAR must be integer)                                 |
|      This setting will greatly improve the performance of VASP for DFT.     |
|      The default NPAR=number of cores might be grossly inefficient          |
|      on modern multi-core architectures or massively parallel machines.     |
|      Do your own testing.                                                   |
|      Unfortunately you need to use the default for hybrid, GW and RPA       |
|      calculations.                                                          |
|                                                                             |
 ----------------------------------------------------------------------------- 

 POTCAR:   PAW_GGA Pt 05Jan2001                   
   VRHFIN =Pt: s1d9                                                             
   LEXCH  = 91                                                                  
   EATOM  =   730.0441 eV,   53.6567 Ry                                         
                                                                                
   TITEL  = PAW_GGA Pt 05Jan2001                                                
   LULTRA =        F    use ultrasoft PP ?                                      
   IUNSCR =        1    unscreen: 0-lin 1-nonlin 2-no                           
   RPACOR =    2.330    partial core radius                                     
   POMASS =  195.080; ZVAL   =   10.000    mass and valenz                      
   RCORE  =    2.500    outmost cutoff radius                                   
   RWIGS  =    2.750; RWIGS  =    1.455    wigner-seitz radius (au A)           
   ENMAX  =  230.277; ENMIN  =  172.708 eV                                      
   RCLOC  =    1.896    cutoff for local pot                                    
   LCOR   =        T    correct aug charges                                     
   LPAW   =        T    paw PP                                                  
   EAUG   =  358.966                                                            
   DEXC   =    -.016                                                            
   RMAX   =    3.038    core radius for proj-oper                               
   RAUG   =    1.300    factor for augmentation sphere                          
   RDEP   =    2.590    core radius for depl-charge                             
   QCUT   =   -4.114; QGAM   =    8.228    optimization parameters              
                                                                                
   Description                                                                  
     l     E      TYP  RCUT    TYP  RCUT                                        
     2   .000     23  2.500                                                     
     2   .000     23  2.500                                                     
     0   .000     23  2.500                                                     
     0   .000     23  2.500                                                     
     1  -.200     23  2.500                                                     
     1  1.500     23  2.500                                                     
     3   .000      7   .000                                                     
  local pseudopotential read in
  partial core-charges read in
  atomic valenz-charges read in
  non local Contribution for L=           2  read in
    real space projection operators read in
  non local Contribution for L=           2  read in
    real space projection operators read in
  non local Contribution for L=           0  read in
    real space projection operators read in
  non local Contribution for L=           0  read in
    real space projection operators read in
  non local Contribution for L=           1  read in
    real space projection operators read in
  non local Contribution for L=           1  read in
    real space projection operators read in
    PAW grid and wavefunctions read in
 
   number of l-projection  operators is LMAX  =           6
   number of lm-projection operators is LMMAX =          18
 
 POTCAR:   PAW_GGA Zn 03Mar1998                   
   VRHFIN =Zn: d10 p2                                                           
   LEXCH  = 91                                                                  
   EATOM  =  1751.1685 eV,  128.7073 Ry                                         
                                                                                
   TITEL  = PAW_GGA Zn 03Mar1998                                                
   LULTRA =        F    use ultrasoft PP ?                                      
   IUNSCR =        1    unscreen: 0-lin 1-nonlin 2-no                           
   RPACOR =    2.000    partial core radius                                     
   POMASS =   65.390; ZVAL   =   12.000    mass and valenz                      
   RCORE  =    2.300    outmost cutoff radius                                   
   RWIGS  =    2.400; RWIGS  =    1.270    wigner-seitz radius (au A)           
   ENMAX  =  276.749; ENMIN  =  207.562 eV                                      
   RCLOC  =    1.828    cutoff for local pot                                    
   LCOR   =        T    correct aug charges                                     
   LPAW   =        T    paw PP                                                  
   EAUG   =  575.892                                                            
   DEXC   =     .000                                                            
   RMAX   =    2.772    core radius for proj-oper                               
   RAUG   =    1.300    factor for augmentation sphere                          
   RDEP   =    2.324    core radius for depl-charge                             
   QCUT   =   -4.510; QGAM   =    9.020    optimization parameters              
                                                                                
   Description                                                                  
     l     E      TYP  RCUT    TYP  RCUT                                        
     2   .000     23  2.300                                                     
     2   .000     23  2.300                                                     
     0   .000     23  2.300                                                     
     0   .000     23  2.300                                                     
     1  -.200     23  2.300                                                     
     1   .000     23  2.300                                                     
     3   .000      7   .000                                                     
  local pseudopotential read in
  partial core-charges read in
  atomic valenz-charges read in
  non local Contribution for L=           2  read in
    real space projection operators read in
  non local Contribution for L=           2  read in
    real space projection operators read in
  non local Contribution for L=           0  read in
    real space projection operators read in
  non local Contribution for L=           0  read in
    real space projection operators read in
  non local Contribution for L=           1  read in
    real space projection operators read in
  non local Contribution for L=           1  read in
    real space projection operators read in
    PAW grid and wavefunctions read in
 
   number of l-projection  operators is LMAX  =           6
   number of lm-projection operators is LMMAX =          18
 
 POTCAR:   PAW_GGA C 05Jan2001                    
   VRHFIN =C: s2p2                                                              
   LEXCH  = 91                                                                  
   EATOM  =   147.4688 eV,   10.8386 Ry                                         
                                                                                
   TITEL  = PAW_GGA C 05Jan2001                                                 
   LULTRA =        F    use ultrasoft PP ?                                      
   IUNSCR =        0    unscreen: 0-lin 1-nonlin 2-no                           
   RPACOR =     .000    partial core radius                                     
   POMASS =   12.011; ZVAL   =    4.000    mass and valenz                      
   RCORE  =    1.500    outmost cutoff radius                                   
   RWIGS  =    1.630; RWIGS  =     .863    wigner-seitz radius (au A)           
   ENMAX  =  400.000; ENMIN  =  300.000 eV                                      
   ICORE  =        2    local potential                                         
   LCOR   =        T    correct aug charges                                     
   LPAW   =        T    paw PP                                                  
   EAUG   =  644.873                                                            
   DEXC   =     .000                                                            
   RMAX   =    2.266    core radius for proj-oper                               
   RAUG   =    1.300    factor for augmentation sphere                          
   RDEP   =    1.501    radius for radial grids                                 
   RDEPT  =    1.300    core radius for aug-charge                              
   QCUT   =   -5.516; QGAM   =   11.033    optimization parameters              
                                                                                
   Description                                                                  
     l     E      TYP  RCUT    TYP  RCUT                                        
     0   .000     23  1.200                                                     
     0   .000     23  1.200                                                     
     1   .000     23  1.500                                                     
     1  2.500     23  1.500                                                     
     2   .000      7  1.500                                                     
  local pseudopotential read in
  atomic valenz-charges read in
  non local Contribution for L=           0  read in
    real space projection operators read in
  non local Contribution for L=           0  read in
    real space projection operators read in
  non local Contribution for L=           1  read in
    real space projection operators read in
  non local Contribution for L=           1  read in
    real space projection operators read in
    PAW grid and wavefunctions read in
 
   number of l-projection  operators is LMAX  =           4
   number of lm-projection operators is LMMAX =           8
 
 POTCAR:   PAW_GGA O 05Jan2001                    
   VRHFIN =O: s2p4                                                              
   LEXCH  = 91                                                                  
   EATOM  =   433.0277 eV,   31.8266 Ry                                         
                                                                                
   TITEL  = PAW_GGA O 05Jan2001                                                 
   LULTRA =        F    use ultrasoft PP ?                                      
   IUNSCR =        0    unscreen: 0-lin 1-nonlin 2-no                           
   RPACOR =     .000    partial core radius                                     
   POMASS =   16.000; ZVAL   =    6.000    mass and valenz                      
   RCORE  =    1.520    outmost cutoff radius                                   
   RWIGS  =    1.550; RWIGS  =     .820    wigner-seitz radius (au A)           
   ENMAX  =  400.000; ENMIN  =  300.000 eV                                      
   ICORE  =        2    local potential                                         
   LCOR   =        T    correct aug charges                                     
   LPAW   =        T    paw PP                                                  
   EAUG   =  605.392                                                            
   DEXC   =     .000                                                            
   RMAX   =    2.264    core radius for proj-oper                               
   RAUG   =    1.300    factor for augmentation sphere                          
   RDEP   =    1.550    radius for radial grids                                 
   QCUT   =   -5.520; QGAM   =   11.040    optimization parameters              
                                                                                
   Description                                                                  
     l     E      TYP  RCUT    TYP  RCUT                                        
     0   .000     23  1.200                                                     
     0  -.700     23  1.200                                                     
     1   .000     23  1.520                                                     
     1   .600     23  1.520                                                     
     2   .000      7  1.500                                                     
  local pseudopotential read in
  atomic valenz-charges read in
  non local Contribution for L=           0  read in
    real space projection operators read in
  non local Contribution for L=           0  read in
    real space projection operators read in
  non local Contribution for L=           1  read in
    real space projection operators read in
  non local Contribution for L=           1  read in
    real space projection operators read in
    PAW grid and wavefunctions read in
 
   number of l-projection  operators is LMAX  =           4
   number of lm-projection operators is LMMAX =           8
 
 POTCAR:   PAW_GGA H 07Jul1998                    
   VRHFIN =H: ultrasoft test                                                    
   LEXCH  = 91                                                                  
   EATOM  =    12.5313 eV,     .9210 Ry                                         
                                                                                
   TITEL  = PAW_GGA H 07Jul1998                                                 
   LULTRA =        F    use ultrasoft PP ?                                      
   IUNSCR =        0    unscreen: 0-lin 1-nonlin 2-no                           
   RPACOR =     .000    partial core radius                                     
   POMASS =    1.000; ZVAL   =    1.000    mass and valenz                      
   RCORE  =    1.100    outmost cutoff radius                                   
   RWIGS  =     .700; RWIGS  =     .370    wigner-seitz radius (au A)           
   ENMAX  =  250.000; ENMIN  =  200.000 eV                                      
   RCLOC  =     .701    cutoff for local pot                                    
   LCOR   =        T    correct aug charges                                     
   LPAW   =        T    paw PP                                                  
   EAUG   =  400.000                                                            
   RMAX   =    2.174    core radius for proj-oper                               
   RAUG   =    1.200    factor for augmentation sphere                          
   RDEP   =    1.112    core radius for depl-charge                             
   QCUT   =   -5.749; QGAM   =   11.498    optimization parameters              
                                                                                
   Description                                                                  
     l     E      TYP  RCUT    TYP  RCUT                                        
     0   .000     23  1.100                                                     
     0   .500     23  1.100                                                     
     1  -.300     23  1.100                                                     
  local pseudopotential read in
  atomic valenz-charges read in
  non local Contribution for L=           0  read in
    real space projection operators read in
  non local Contribution for L=           0  read in
    real space projection operators read in
  non local Contribution for L=           1  read in
    real space projection operators read in
    PAW grid and wavefunctions read in
 
   number of l-projection  operators is LMAX  =           3
   number of lm-projection operators is LMMAX =           5
 
 Optimization of the real space projectors (new method)

 maximal supplied QI-value         = 15.12
 optimisation between [QCUT,QGAM] = [  8.77, 17.69] = [ 21.53, 87.61] Ry 
 Optimized for a Real-space Cutoff    1.42 Angstroem

   l    n(q)    QCUT    max X(q) W(low)/X(q) W(high)/X(q)  e(spline) 
   2      6     8.768     3.641    0.67E-03    0.89E-04    0.26E-07
   2      6     8.768    46.630    0.97E-02    0.58E-03    0.36E-06
   0      7     8.768    13.886    0.12E-04    0.48E-04    0.13E-07
   0      7     8.768    57.975    0.69E-03    0.79E-03    0.13E-06
   1      7     8.768     7.456    0.21E-03    0.15E-03    0.26E-07
   1      7     8.768    10.270    0.88E-03    0.11E-02    0.67E-07
 Optimization of the real space projectors (new method)

 maximal supplied QI-value         = 16.25
 optimisation between [QCUT,QGAM] = [  8.78, 17.71] = [ 21.57, 87.87] Ry 
 Optimized for a Real-space Cutoff    1.26 Angstroem

   l    n(q)    QCUT    max X(q) W(low)/X(q) W(high)/X(q)  e(spline) 
   2      6     8.776     5.520    0.38E-03    0.52E-04    0.27E-07
   2      6     8.776     9.676    0.29E-02    0.35E-02    0.13E-06
   0      7     8.776    11.190    0.29E-03    0.20E-03    0.17E-07
   0      7     8.776    34.607    0.42E-02    0.36E-02    0.13E-06
   1      6     8.776     4.864    0.11E-02    0.96E-03    0.34E-07
   1      6     8.776     6.591    0.55E-02    0.34E-02    0.14E-06
 Optimization of the real space projectors (new method)

 maximal supplied QI-value         = 25.13
 optimisation between [QCUT,QGAM] = [  8.80, 17.59] = [ 21.67, 86.68] Ry 
 Optimized for a Real-space Cutoff    1.12 Angstroem

   l    n(q)    QCUT    max X(q) W(low)/X(q) W(high)/X(q)  e(spline) 
   0      6     8.797     5.568    0.98E-04    0.54E-03    0.34E-07
   0      6     8.797    69.244    0.23E-02    0.77E-03    0.14E-06
   1      5     8.797     2.779    0.12E-02    0.14E-02    0.42E-07
   1      5     8.797     4.385    0.93E-03    0.24E-02    0.12E-06
 Optimization of the real space projectors (new method)

 maximal supplied QI-value         = 24.76
 optimisation between [QCUT,QGAM] = [  8.66, 17.58] = [ 21.02, 86.51] Ry 
 Optimized for a Real-space Cutoff    1.12 Angstroem

   l    n(q)    QCUT    max X(q) W(low)/X(q) W(high)/X(q)  e(spline) 
   0      6     8.664     4.138    0.11E-03    0.63E-03    0.41E-07
   0      6     8.664     8.500    0.16E-02    0.13E-02    0.16E-06
   1      5     8.664     2.482    0.14E-03    0.25E-03    0.17E-07
   1      5     8.664     3.751    0.12E-02    0.11E-02    0.12E-06
 Optimization of the real space projectors (new method)

 maximal supplied QI-value         = 34.20
 optimisation between [QCUT,QGAM] = [  8.55, 17.44] = [ 20.48, 85.21] Ry 
 Optimized for a Real-space Cutoff    1.12 Angstroem

   l    n(q)    QCUT    max X(q) W(low)/X(q) W(high)/X(q)  e(spline) 
   0      6     8.551     4.435    0.16E-03    0.14E-03    0.34E-07
   0      6     8.551    15.959    0.45E-03    0.32E-02    0.17E-06
   1      5     8.551     4.433    0.66E-02    0.67E-02    0.12E-06
 PAW_GGA Pt 05Jan2001                   :
 energy of atom  1       EATOM= -730.0441
 kinetic energy error for atom=    0.0416 (will be added to EATOM!!)
 PAW_GGA Zn 03Mar1998                   :
 energy of atom  2       EATOM=-1751.1685
 kinetic energy error for atom=    0.0295 (will be added to EATOM!!)
 PAW_GGA C 05Jan2001                    :
 energy of atom  3       EATOM= -147.4688
 kinetic energy error for atom=    0.2583 (will be added to EATOM!!)
 PAW_GGA O 05Jan2001                    :
 energy of atom  4       EATOM= -433.0277
 kinetic energy error for atom=    1.1957 (will be added to EATOM!!)
 PAW_GGA H 07Jul1998                    :
 energy of atom  5       EATOM=  -12.5313
 kinetic energy error for atom=    0.0427 (will be added to EATOM!!)
 
 
 POSCAR: Title                                   
  positions in direct lattice
  No initial velocities read in
 exchange correlation table for  LEXCH =        7
   RHO(1)=    0.500       N(1)  =     2000
   RHO(2)=  100.500       N(2)  =     4000

 VTST: version 3.0c, (03/27/13)

 CHAIN: initializing optimizer
 
 OPT: Using VASP Dynamics algorithm
 CHAIN: Read ICHAIN            0
 
 POSCAR: Title                                   
  positions in direct lattice
  No initial velocities read in
 


--------------------------------------------------------------------------------------------------------


 ion  position               nearest neighbor table
   1  0.000  0.000  0.000-   9 2.82  33 2.82  13 2.82  25 2.82   5 2.82  17 2.82  36 2.82  28 2.82
                             4 2.82
   2  0.995  0.996  0.316-  18 2.74  34 2.75   6 2.80  26 2.82  35 2.83  14 2.83  11 2.83  10 2.84
                             3 2.86
   3  0.222  0.111  0.210-  18 2.78   6 2.80  28 2.82   8 2.82   4 2.82  27 2.82  11 2.82  35 2.82
                            15 2.82  19 2.82   7 2.82   2 2.86
   4  0.111  0.222  0.105-  11 2.82   3 2.82  15 2.82  36 2.82  28 2.82  12 2.82   8 2.82  20 2.82
                            16 2.82  13 2.82   1 2.82  17 2.82
   5  0.333  0.000  0.000-  25 2.82  29 2.82  17 2.82   1 2.82  21 2.82   9 2.82  32 2.82  28 2.82
                             8 2.82
   6  0.326  0.996  0.315-  26 2.79  27 2.80   2 2.80  18 2.80   3 2.80  10 2.81  22 2.82   7 2.85
                            30 2.86
   7  0.556  0.111  0.210-  32 2.82  12 2.82   8 2.82  31 2.82  23 2.82  11 2.82  19 2.82  27 2.82
                             3 2.82   6 2.85  10 2.89  22 2.92
   8  0.444  0.222  0.105-   3 2.82  19 2.82   7 2.82  32 2.82  28 2.82   4 2.82  12 2.82  24 2.82
                            20 2.82   5 2.82  17 2.82  21 2.82
   9  0.667  0.000  0.000-   1 2.82  33 2.82  21 2.82  13 2.82  29 2.82   5 2.82  36 2.82  12 2.82
                            32 2.82
  10  0.658  0.995  0.320-  40 1.82   6 2.81  22 2.81  34 2.81  14 2.82  30 2.84   2 2.84  31 2.89
                             7 2.89  11 2.95
  11  0.889  0.111  0.210-   4 2.82  36 2.82  12 2.82  35 2.82   3 2.82  15 2.82  31 2.82   7 2.82
                            23 2.82  14 2.82   2 2.83  10 2.95
  12  0.778  0.222  0.105-   7 2.82  11 2.82  23 2.82  36 2.82   4 2.82  32 2.82  16 2.82   8 2.82
                            24 2.82   9 2.82  21 2.82  13 2.82
  13  0.000  0.333  0.000-  17 2.82   1 2.82  21 2.82   9 2.82  29 2.82  25 2.82   4 2.82  12 2.82
                            16 2.82
  14  0.991  0.329  0.316-  18 2.79  26 2.80  22 2.80  30 2.80  23 2.81  11 2.82  10 2.82   2 2.83
                            15 2.87
  15  0.222  0.444  0.210-  18 2.80   4 2.82  20 2.82  16 2.82  23 2.82  11 2.82   3 2.82  27 2.82
                            31 2.82  19 2.82  14 2.87  30 2.96
  16  0.111  0.556  0.105-  23 2.82  27 2.82  15 2.82  24 2.82  28 2.82  20 2.82  32 2.82  12 2.82
                             4 2.82  25 2.82  29 2.82  13 2.82
  17  0.333  0.333  0.000-  13 2.82   5 2.82   1 2.82  33 2.82  29 2.82  21 2.82   8 2.82   4 2.82
                            20 2.82
  18  0.318  0.323  0.315-  37 2.53   2 2.74   3 2.78  14 2.79   6 2.80  15 2.80  30 2.80  22 2.87
                            19 2.89  34 2.96
  19  0.556  0.444  0.210-  34 2.77  24 2.82   8 2.82  23 2.82   7 2.82  20 2.82   3 2.82  35 2.82
                            31 2.82  15 2.82  18 2.89  22 2.92
  20  0.444  0.556  0.105-  31 2.82  15 2.82  32 2.82  16 2.82  19 2.82  36 2.82   4 2.82  24 2.82
                             8 2.82  29 2.82  33 2.82  17 2.82
  21  0.667  0.333  0.000-   9 2.82  13 2.82  25 2.82   5 2.82  33 2.82  17 2.82  12 2.82  24 2.82
                             8 2.82
  22  0.659  0.329  0.321-  37 2.62  14 2.80  10 2.81   6 2.82  34 2.84  26 2.84  18 2.87   7 2.92
                            19 2.92  23 2.96
  23  0.889  0.444  0.210-  14 2.81  16 2.82  12 2.82  24 2.82  15 2.82   7 2.82  19 2.82  11 2.82
                            27 2.82  35 2.82  26 2.82  22 2.96
  24  0.778  0.556  0.105-  35 2.82  19 2.82  23 2.82  16 2.82  28 2.82  36 2.82  20 2.82   8 2.82
                            12 2.82  33 2.82  25 2.82  21 2.82
  25  0.000  0.667  0.000-  29 2.82   5 2.82   1 2.82  33 2.82  21 2.82  13 2.82  16 2.82  24 2.82
                            28 2.82
  26  0.997  0.663  0.316-  34 2.78   6 2.79  14 2.80  30 2.80  23 2.82   2 2.82  35 2.84  22 2.84
                            27 2.85
  27  0.222  0.778  0.210-   6 2.80  16 2.82  28 2.82  32 2.82   3 2.82  35 2.82  23 2.82   7 2.82
                            15 2.82  31 2.82  26 2.85  30 3.00
  28  0.111  0.889  0.105-   3 2.82  35 2.82  27 2.82   4 2.82  36 2.82   8 2.82  24 2.82  16 2.82
                            32 2.82   1 2.82   5 2.82  25 2.82
  29  0.333  0.667  0.000-  25 2.82   5 2.82  13 2.82   9 2.82  17 2.82  33 2.82  20 2.82  16 2.82
                            32 2.82
  30  0.325  0.657  0.325-  38 2.06  18 2.80  26 2.80  14 2.80  10 2.84   6 2.86  34 2.89  15 2.96
                            27 3.00  31 3.04
  31  0.556  0.778  0.210-  34 2.76  36 2.82  20 2.82  32 2.82   7 2.82  11 2.82  35 2.82  19 2.82
                            15 2.82  27 2.82  10 2.89  30 3.04
  32  0.444  0.889  0.105-   7 2.82  27 2.82  31 2.82   8 2.82  20 2.82  28 2.82  16 2.82  12 2.82
                            36 2.82   5 2.82  29 2.82   9 2.82
  33  0.667  0.667  0.000-   1 2.82   9 2.82  25 2.82  17 2.82  21 2.82  29 2.82  24 2.82  36 2.82
                            20 2.82
  34  0.671  0.669  0.312-  37 2.51  35 2.74   2 2.75  31 2.76  19 2.77  26 2.78  10 2.81  22 2.84
                            30 2.89  18 2.96
  35  0.889  0.778  0.210-  34 2.74  28 2.82  24 2.82  36 2.82  11 2.82  27 2.82   3 2.82  31 2.82
                            19 2.82  23 2.82   2 2.83  26 2.84
  36  0.778  0.889  0.105-  11 2.82  35 2.82  31 2.82   4 2.82  12 2.82  28 2.82  24 2.82  20 2.82
                            32 2.82   1 2.82   9 2.82  33 2.82
  37  0.537  0.467  0.404-  39 2.00  34 2.51  18 2.53  22 2.62
  38  0.406  0.716  0.415-  41 1.11  39 1.30  40 1.39  30 2.06
  39  0.448  0.615  0.448-  38 1.30  37 2.00
  40  0.555  0.869  0.390-  38 1.39  10 1.82
  41  0.334  0.776  0.440-  38 1.11
 

IMPORTANT INFORMATION: All symmetrisations will be switched off!
NOSYMM: (Re-)initialisation of all symmetry stuff for point group C_1.

 
 
 KPOINTS: Automatic mesh                          

Automatic generation of k-mesh.
Space group operators:
 irot       det(A)        alpha          n_x          n_y          n_z        tau_x        tau_y        tau_z
    1     1.000000     0.000000     1.000000     0.000000     0.000000     0.000000     0.000000     0.000000
 
 Subroutine IBZKPT returns following result:
 ===========================================
 
 Found      5 irreducible k-points:
 
 Following reciprocal coordinates:
            Coordinates               Weight
  0.000000  0.000000  0.000000      1.000000
  0.333333  0.000000  0.000000      2.000000
  0.000000  0.333333  0.000000      2.000000
  0.333333  0.333333  0.000000      2.000000
 -0.333333  0.333333  0.000000      2.000000
 
 Following cartesian coordinates:
            Coordinates               Weight
  0.000000  0.000000  0.000000      1.000000
  0.039448  0.022775  0.000000      2.000000
  0.000000  0.045551  0.000000      2.000000
  0.039448  0.068326  0.000000      2.000000
 -0.039448  0.022775  0.000000      2.000000
 
 
 Subroutine IBZKPT_HF returns following result:
 ==============================================
 
 Found      9 k-points in 1st BZ
 the following      9 k-points will be used (e.g. in the exchange kernel)
 Following reciprocal coordinates:   # in IRBZ
  0.000000  0.000000  0.000000       1 t-inv F
  0.333333  0.000000  0.000000       2 t-inv F
  0.000000  0.333333  0.000000       3 t-inv F
  0.333333  0.333333  0.000000       4 t-inv F
 -0.333333  0.333333  0.000000       5 t-inv F
 -0.333333  0.000000  0.000000       2 t-inv T
  0.000000 -0.333333  0.000000       3 t-inv T
 -0.333333 -0.333333  0.000000       4 t-inv T
  0.333333 -0.333333  0.000000       5 t-inv T
 Determining symmetry at each k-point (small space group operations):
 NK1=           1  operations           1
 NK1=           2  operations           1
 NK1=           3  operations           1
 NK1=           4  operations           1
 NK1=           5  operations           1


--------------------------------------------------------------------------------------------------------




 Dimension of arrays:
   k-points           NKPTS =      5   k-points in BZ     NKDIM =      5   number of bands    NBANDS=    240
   number of dos      NEDOS =    301   number of ions     NIONS =     41
   non local maximal  LDIM  =      6   non local SUM 2l+1 LMDIM =     18
   total plane-waves  NPLWV = 124416
   max r-space proj   IRMAX =   1143   max aug-charges    IRDMAX=   2482
   dimension x,y,z NGX =    36 NGY =   36 NGZ =   96
   dimension x,y,z NGXF=    54 NGYF=   54 NGZF=  140
   support grid    NGXF=    54 NGYF=   54 NGZF=  140
   ions per type =              36   1   1   1   2
 NGX,Y,Z   is equivalent  to a cutoff of   7.08,  7.08,  7.29 a.u.
 NGXF,Y,Z  is equivalent  to a cutoff of  10.62, 10.62, 10.63 a.u.


 I would recommend the setting:
   dimension x,y,z NGX =    36 NGY =   36 NGZ =   93
 SYSTEM =  Title                                   
 POSCAR =  Title                                   

 Startparameter for this run:
   NWRITE =      2    write-flag & timer
   PREC   = low       normal or accurate (medium, high low for compatibility)
   ISTART =      0    job   : 0-new  1-cont  2-samecut
   ICHARG =      2    charge: 1-file 2-atom 10-const
   ISPIN  =      1    spin polarized calculation?
   LNONCOLLINEAR =      F non collinear calculations
   LSORBIT =      F    spin-orbit coupling
   INIWAV =      1    electr: 0-lowe 1-rand  2-diag
   LASPH  =      F    aspherical Exc in radial PAW
   METAGGA=      F    non-selfconsistent MetaGGA calc.

 Electronic Relaxation 1
   ENCUT  =  300.0 eV  22.05 Ry    4.70 a.u.  11.93 11.93 30.93*2*pi/ulx,y,z
   ENINI  =  300.0     initial cutoff
   ENAUG  =  644.9 eV  augmentation charge cutoff
   NELM   =    100;   NELMIN=  6; NELMDL=  0     # of ELM steps 
   EDIFF  = 0.1E-04   stopping-criterion for ELM
   LREAL  =      T    real-space projection
   NLSPLINE    = F    spline interpolate recip. space projectors
   LCOMPAT=      F    compatible to vasp.4.4
   GGA_COMPAT  = T    GGA compatible to vasp.4.4-vasp.4.6
   LMAXPAW     = -100 max onsite density
   LMAXMIX     =    2 max onsite mixed and CHGCAR
   VOSKOWN=      1    Vosko Wilk Nusair interpolation
   ROPT   =   -0.01000  -0.01000  -0.01000  -0.01000
   ROPT   =   -0.01000
 Ionic relaxation
   EDIFFG = -.4E-01   stopping-criterion for IOM
   NSW    =    300    number of steps for IOM
   NBLOCK =      1;   KBLOCK =    300    inner block; outer block 
   IBRION =      5    ionic relax: 0-MD 1-quasi-New 2-CG
   NFREE  =      2    steps in history (QN), initial steepest desc. (CG)
   ISIF   =      2    stress and relaxation
   IWAVPR =     11    prediction:  0-non 1-charg 2-wave 3-comb
   ISYM   =      0    0-nonsym 1-usesym 2-fastsym
   LCORR  =      T    Harris-Foulkes like correction to forces

   POTIM  = 0.0200    time-step for ionic-motion
   TEIN   =    0.0    initial temperature
   TEBEG  =    0.0;   TEEND  =   0.0 temperature during run
   SMASS  =  -3.00    Nose mass-parameter (am)
   estimated Nose-frequenzy (Omega)   =  0.10E-29 period in steps =****** mass=  -0.163E-26a.u.
   SCALEE = 1.0000    scale energy and forces
   NPACO  =    256;   APACO  = 16.0  distance and # of slots for P.C.
   PSTRESS=    0.0 pullay stress

  Mass of Ions in am
   POMASS = 195.08 65.39 12.01 16.00  1.00
  Ionic Valenz
   ZVAL   =  10.00 12.00  4.00  6.00  1.00
  Atomic Wigner-Seitz radii
   RWIGS  =  -1.00 -1.00 -1.00 -1.00 -1.00
  virtual crystal weights 
   VCA    =   1.00  1.00  1.00  1.00  1.00
   NELECT =     384.0000    total number of electrons
   NUPDOWN=      -1.0000    fix difference up-down

 DOS related values:
   EMIN   =  10.00;   EMAX   =-10.00  energy-range for DOS
   EFERMI =   0.00
   ISMEAR =     1;   SIGMA  =   0.20  broadening in eV -4-tet -1-fermi 0-gaus

 Electronic relaxation 2 (details)
   IALGO  =     38    algorithm
   LDIAG  =      T    sub-space diagonalisation (order eigenvalues)
   LSUBROT=      T    optimize rotation matrix (better conditioning)
   TURBO    =      0    0=normal 1=particle mesh
   IRESTART =      0    0=no restart 2=restart with 2 vectors
   NREBOOT  =      0    no. of reboots
   NMIN     =      0    reboot dimension
   EREF     =   0.00    reference energy to select bands
   IMIX   =      4    mixing-type and parameters
     AMIX     =   0.40;   BMIX     =  1.00
     AMIX_MAG =   1.60;   BMIX_MAG =  1.00
     AMIN     =   0.10
     WC   =   100.;   INIMIX=   1;  MIXPRE=   1;  MAXMIX= -45

 Intra band minimization:
   WEIMIN = 0.0010     energy-eigenvalue tresh-hold
   EBREAK =  0.10E-07  absolut break condition
   DEPER  =   0.30     relativ break condition  

   TIME   =   0.40     timestep for ELM

  volume/ion in A,a.u.               =      33.03       222.88
  Fermi-wavevector in a.u.,A,eV,Ry     =   1.075550  2.032495 15.739324  1.156808
  Thomas-Fermi vector in A             =   2.211410
 
 Write flags
   LWAVE  =      F    write WAVECAR
   LCHARG =      F    write CHGCAR
   LVTOT  =      F    write LOCPOT, total local potential
   LVHAR  =      F    write LOCPOT, Hartree potential only
   LELF   =      F    write electronic localiz. function (ELF)
   LORBIT =      0    0 simple, 1 ext, 2 COOP (PROOUT)


 Dipole corrections
   LMONO  =      F    monopole corrections only (constant potential shift)
   LDIPOL =      F    correct potential (dipole corrections)
   IDIPOL =      0    1-x, 2-y, 3-z, 4-all directions 
   EPSILON=  1.0000000 bulk dielectric constant

 Exchange correlation treatment:
   GGA     =    --    GGA type
   LEXCH   =     7    internal setting for exchange type
   VOSKOWN=      1    Vosko Wilk Nusair interpolation
   LHFCALC =     F    Hartree Fock is set to
   LHFONE  =     F    Hartree Fock one center treatment
   AEXX    =    0.0000 exact exchange contribution

 Linear response parameters
   LEPSILON=     F    determine dielectric tensor
   LRPA    =     F    only Hartree local field effects (RPA)
   LNABLA  =     F    use nabla operator in PAW spheres
   LVEL    =     F    velocity operator in full k-point grid
   LINTERFAST=   F  fast interpolation
   KINTER  =     0    interpolate to denser k-point grid
   CSHIFT  =0.1000    complex shift for real part using Kramers Kronig
   OMEGAMAX=  -1.0    maximum frequency
   DEG_THRESHOLD= 0.2000000E-02 threshold for treating states as degnerate
   RTIME   =    0.100 relaxation time in fs

 Orbital magnetization related:
   ORBITALMAG=     F  switch on orbital magnetization
   LCHIMAG   =     F  perturbation theory with respect to B field
   DQ        =  0.001000  dq finite difference perturbation B field



--------------------------------------------------------------------------------------------------------


 finite differences
   using selective dynamics as specified on POSCAR
 charge density and potential will be updated during run
 non-spin polarized calculation
 Variant of blocked Davidson
 Davidson routine will perform the subspace rotation
 perform sub-space diagonalisation
    after iterative eigenvector-optimisation
 modified Broyden-mixing scheme, WC =      100.0
 initial mixing is a Kerker type mixing with AMIX =  0.4000 and BMIX =      1.0000
 Hartree-type preconditioning will be used
 using additional bands           48
 real space projection scheme for non local part
 use partial core corrections
 calculate Harris-corrections to forces 
   (improved forces if not selfconsistent)
 use gradient corrections 
 use of overlap-Matrix (Vanderbilt PP)
 Methfessel and Paxton  Order N= 1 SIGMA  =   0.20


--------------------------------------------------------------------------------------------------------


  energy-cutoff  :      300.00
  volume of cell :     1354.14
      direct lattice vectors                 reciprocal lattice vectors
     8.449899673  0.000000000  0.000000000     0.118344600  0.068326287  0.000000000
    -4.224949837  7.317827777  0.000000000     0.000000000  0.136652574  0.000000000
     0.000000000  0.000000000 21.899299622     0.000000000  0.000000000  0.045663561

  length of vectors
     8.449899673  8.449899673 21.899299622     0.136652574  0.136652574  0.045663561


 
 k-points in units of 2pi/SCALE and weight: Automatic mesh                          
   0.00000000  0.00000000  0.00000000       0.111
   0.03944820  0.02277543  0.00000000       0.222
   0.00000000  0.04555086  0.00000000       0.222
   0.03944820  0.06832629  0.00000000       0.222
  -0.03944820  0.02277543  0.00000000       0.222
 
 k-points in reciprocal lattice and weights: Automatic mesh                          
   0.00000000  0.00000000  0.00000000       0.111
   0.33333333  0.00000000  0.00000000       0.222
   0.00000000  0.33333333  0.00000000       0.222
   0.33333333  0.33333333  0.00000000       0.222
  -0.33333333  0.33333333  0.00000000       0.222
 
 position of ions in fractional coordinates (direct lattice) 
   0.00000000  0.00000000  0.00000000
   0.99474750  0.99643600  0.31636014
   0.22222001  0.11111000  0.21003000
   0.11111000  0.22222001  0.10502000
   0.33333001  0.00000000  0.00000000
   0.32556882  0.99570290  0.31497296
   0.55556002  0.11111000  0.21003000
   0.44444002  0.22222001  0.10502000
   0.66667003  0.00000000  0.00000000
   0.65799553  0.99517153  0.32022441
   0.88889003  0.11111000  0.21003000
   0.77778003  0.22222001  0.10502000
   0.00000004  0.33333001  0.00000000
   0.99078026  0.32903541  0.31603772
   0.22222001  0.44444002  0.21003000
   0.11111000  0.55556002  0.10502000
   0.33333001  0.33333001  0.00000000
   0.31757533  0.32309959  0.31538057
   0.55556002  0.44444002  0.21003000
   0.44444002  0.55556002  0.10502000
   0.66667003  0.33333001  0.00000000
   0.65941302  0.32895754  0.32149934
   0.88889003  0.44444002  0.21003000
   0.77778003  0.55556002  0.10502000
   0.00000004  0.66667003  0.00000000
   0.99671551  0.66322389  0.31622637
   0.22222001  0.77778003  0.21003000
   0.11111000  0.88889003  0.10502000
   0.33333001  0.66667003  0.00000000
   0.32463666  0.65730856  0.32520639
   0.55556002  0.77778003  0.21003000
   0.44444002  0.88889003  0.10502000
   0.66667003  0.66667003  0.00000000
   0.67091363  0.66942722  0.31175238
   0.88889003  0.77778003  0.21003000
   0.77778003  0.88889003  0.10502000
   0.53664979  0.46671737  0.40359134
   0.40614569  0.71550164  0.41506527
   0.44830673  0.61466086  0.44816874
   0.55530199  0.86872093  0.39012677
   0.33394050  0.77563578  0.43985261
 
 position of ions in cartesian coordinates  (Angst):
   0.00000000  0.00000000  0.00000000
   4.19562443  7.29174701  6.92806542
   1.40830258  0.81308388  4.59950998
   0.00000000  1.62616775  2.29986449
   2.81660517  0.00000000  0.00000000
  -1.45577089  7.28638233  6.89768724
   4.22499225  0.81308388  4.59950998
   2.81660517  1.62616775  2.29986449
   5.63329483  0.00000000  0.00000000
   1.35544646  7.28249384  7.01269020
   7.04159742  0.81308388  4.59950998
   5.63329483  1.62616775  2.29986449
  -1.40830226  2.43925163  0.00000000
   6.98183568  2.40782446  6.92100473
   0.00000000  3.25233550  4.59950998
  -1.40834483  4.06549256  2.29986449
   1.40830258  2.43925163  0.00000000
   1.31840018  2.36438712  6.90661366
   2.81668967  3.25233550  4.59950998
   1.40826033  4.06549256  2.29986449
   4.22499225  2.43925163  0.00000000
   4.18214480  2.40725459  7.04061032
   5.63329483  3.25233550  4.59950998
   4.22495000  4.06549256  2.29986449
  -2.81664709  4.87857643  0.00000000
   5.62005843  4.85335819  6.92513609
  -1.40834483  5.69166031  4.59950998
  -2.81664742  6.50474418  2.29986449
  -0.00004225  4.87857643  0.00000000
  -0.03394855  4.81007087  7.12179211
   1.40834483  5.69166031  4.59950998
  -0.00004225  6.50474418  2.29986449
   2.81664742  4.87857643  0.00000000
   2.84085646  4.89875311  6.82715878
   4.22495000  5.69166031  4.59950998
   2.81664742  6.50474418  2.29986449
   2.56277941  3.41535736  8.83836767
   0.40893180  5.23591775  9.08963871
   1.19123556  4.49798231  9.81458143
   1.02194372  6.35715015  8.54350312
  -0.45525855  5.67596904  9.63246414
 


--------------------------------------------------------------------------------------------------------


 k-point  1 :   0.0000 0.0000 0.0000  plane waves:   15907
 k-point  2 :   0.3333 0.0000 0.0000  plane waves:   15965
 k-point  3 :   0.0000 0.3333 0.0000  plane waves:   15965
 k-point  4 :   0.3333 0.3333 0.0000  plane waves:   16056
 k-point  5 :  -0.3333 0.3333 0.0000  plane waves:   15965

 maximum and minimum number of plane-waves per node :     16056    15907

 maximum number of plane-waves:     16056
 maximum index in each direction: 
   IXMAX=   12   IYMAX=   11   IZMAX=   30
   IXMIN=  -12   IYMIN=  -12   IZMIN=  -30

 WARNING: aliasing errors must be expected set NGX to  50 to avoid them
 WARNING: aliasing errors must be expected set NGY to  48 to avoid them
 WARNING: aliasing errors must be expected set NGZ to 122 to avoid them
 aliasing errors are usually negligible using standard VASP settings
 and one can safely disregard these warnings

 serial   3D FFT for wavefunctions
 parallel 3D FFT for charge:
    minimum data exchange during FFTs selected (reduces bandwidth)


 total amount of memory used by VASP on root node    66779. kBytes
========================================================================

   base      :      30000. kBytes
   nonlr-proj:       7007. kBytes
   fftplans  :       1570. kBytes
   grid      :       7444. kBytes
   one-center:        637. kBytes
   wavefun   :      20121. kBytes
 
 Broyden mixing: mesh for mixing (old mesh)
   NGX = 23   NGY = 23   NGZ = 61
  (NGX  = 54   NGY  = 54   NGZ  =140)
  gives a total of  32269 points

 initial charge density was supplied:
 charge density of overlapping atoms calculated
 number of electron     384.0000000 magnetization 
 keeping initial charge density in first step


--------------------------------------------------------------------------------------------------------


 Maximum index for non-local projection operator         1068
 Maximum index for augmentation-charges          300 (set IRDMAX)


--------------------------------------------------------------------------------------------------------


 First call to EWALD:  gamma=   0.160
 Maximum number of real-space cells 4x 4x 2
 Maximum number of reciprocal cells 2x 2x 5

 FEWALD executed in parallel
    FEWALD:  cpu time    0.00: real time    0.00


----------------------------------------- Iteration    1(   1)  ---------------------------------------


    POTLOK:  cpu time    0.06: real time    0.06
    SETDIJ:  cpu time    0.01: real time    0.01
     EDDAV:  cpu time    7.06: real time    7.09
       DOS:  cpu time    0.00: real time    0.00
    --------------------------------------------
      LOOP:  cpu time    7.14: real time    7.23

 eigenvalue-minimisations  :  2400
 total energy-change (2. order) : 0.2957714E+04  (-0.1237544E+05)
 number of electron     384.0000000 magnetization 
 augmentation part      384.0000000 magnetization 

 Free energy of the ion-electron system (eV)
  ---------------------------------------------------
  alpha Z        PSCENC =      1531.59333187
  Ewald energy   TEWEN  =     88481.28852710
  -1/2 Hartree   DENC   =   -118839.96469323
  -exchange  EXHF       =         0.00000000
  -V(xc)+E(xc)   XCENC  =       204.11631818
  PAW double counting   =     22253.57838393   -21412.39503997
  entropy T*S    EENTRO =         0.00024058
  eigenvalues    EBANDS =      2104.24781972
  atomic energy  EATOM  =     28635.24933847
  ---------------------------------------------------
  free energy    TOTEN  =      2957.71422665 eV

  energy without entropy =     2957.71398607  energy(sigma->0) =     2957.71414646


--------------------------------------------------------------------------------------------------------




----------------------------------------- Iteration    1(   2)  ---------------------------------------


     EDDAV:  cpu time    7.39: real time    7.48
       DOS:  cpu time    0.00: real time    0.00
    --------------------------------------------
      LOOP:  cpu time    7.40: real time    7.49

 eigenvalue-minimisations  :  2528
 total energy-change (2. order) :-0.2911861E+04  (-0.2678367E+04)
 number of electron     384.0000000 magnetization 
 augmentation part      384.0000000 magnetization 

 Free energy of the ion-electron system (eV)
  ---------------------------------------------------
  alpha Z        PSCENC =      1531.59333187
  Ewald energy   TEWEN  =     88481.28852710
  -1/2 Hartree   DENC   =   -118839.96469323
  -exchange  EXHF       =         0.00000000
  -V(xc)+E(xc)   XCENC  =       204.11631818
  PAW double counting   =     22253.57838393   -21412.39503997
  entropy T*S    EENTRO =         0.02826808
  eigenvalues    EBANDS =      -807.64121105
  atomic energy  EATOM  =     28635.24933847
  ---------------------------------------------------
  free energy    TOTEN  =        45.85322338 eV

  energy without entropy =       45.82495530  energy(sigma->0) =       45.84380069


--------------------------------------------------------------------------------------------------------




----------------------------------------- Iteration    1(   3)  ---------------------------------------


     EDDAV:  cpu time    8.42: real time    8.43
       DOS:  cpu time    0.00: real time    0.00
    --------------------------------------------
      LOOP:  cpu time    8.42: real time    8.51

 eigenvalue-minimisations  :  3024
 total energy-change (2. order) :-0.2787000E+03  (-0.2524280E+03)
 number of electron     384.0000000 magnetization 
 augmentation part      384.0000000 magnetization 

 Free energy of the ion-electron system (eV)
  ---------------------------------------------------
  alpha Z        PSCENC =      1531.59333187
  Ewald energy   TEWEN  =     88481.28852710
  -1/2 Hartree   DENC   =   -118839.96469323
  -exchange  EXHF       =         0.00000000
  -V(xc)+E(xc)   XCENC  =       204.11631818
  PAW double counting   =     22253.57838393   -21412.39503997
  entropy T*S    EENTRO =        -0.02759493
  eigenvalues    EBANDS =     -1086.28531943
  atomic energy  EATOM  =     28635.24933847
  ---------------------------------------------------
  free energy    TOTEN  =      -232.84674800 eV

  energy without entropy =     -232.81915307  energy(sigma->0) =     -232.83754969


--------------------------------------------------------------------------------------------------------




----------------------------------------- Iteration    1(   4)  ---------------------------------------


     EDDAV:  cpu time    8.66: real time    8.73
       DOS:  cpu time    0.00: real time    0.00
    --------------------------------------------
      LOOP:  cpu time    8.66: real time    8.74

 eigenvalue-minimisations  :  3120
 total energy-change (2. order) :-0.1473008E+02  (-0.1408497E+02)
 number of electron     384.0000000 magnetization 
 augmentation part      384.0000000 magnetization 

 Free energy of the ion-electron system (eV)
  ---------------------------------------------------
  alpha Z        PSCENC =      1531.59333187
  Ewald energy   TEWEN  =     88481.28852710
  -1/2 Hartree   DENC   =   -118839.96469323
  -exchange  EXHF       =         0.00000000
  -V(xc)+E(xc)   XCENC  =       204.11631818
  PAW double counting   =     22253.57838393   -21412.39503997
  entropy T*S    EENTRO =        -0.06571846
  eigenvalues    EBANDS =     -1100.97728042
  atomic energy  EATOM  =     28635.24933847
  ---------------------------------------------------
  free energy    TOTEN  =      -247.57683253 eV

  energy without entropy =     -247.51111407  energy(sigma->0) =     -247.55492638


--------------------------------------------------------------------------------------------------------




----------------------------------------- Iteration    1(   5)  ---------------------------------------


     EDDAV:  cpu time    8.48: real time    8.50
       DOS:  cpu time    0.00: real time    0.00
    CHARGE:  cpu time    0.31: real time    0.31
    MIXING:  cpu time    0.00: real time    0.00
    --------------------------------------------
      LOOP:  cpu time    8.80: real time    8.82

 eigenvalue-minimisations  :  3056
 total energy-change (2. order) :-0.3170814E+00  (-0.3161718E+00)
 number of electron     383.9997296 magnetization 
 augmentation part      114.3310160 magnetization 

 Broyden mixing:
  rms(total) = 0.24670E+01    rms(broyden)= 0.24615E+01
  rms(prec ) = 0.27506E+01
  weight for this iteration     100.00

 Free energy of the ion-electron system (eV)
  ---------------------------------------------------
  alpha Z        PSCENC =      1531.59333187
  Ewald energy   TEWEN  =     88481.28852710
  -1/2 Hartree   DENC   =   -118839.96469323
  -exchange  EXHF       =         0.00000000
  -V(xc)+E(xc)   XCENC  =       204.11631818
  PAW double counting   =     22253.57838393   -21412.39503997
  entropy T*S    EENTRO =        -0.06637511
  eigenvalues    EBANDS =     -1101.29370517
  atomic energy  EATOM  =     28635.24933847
  ---------------------------------------------------
  free energy    TOTEN  =      -247.89391393 eV

  energy without entropy =     -247.82753881  energy(sigma->0) =     -247.87178889


--------------------------------------------------------------------------------------------------------




----------------------------------------- Iteration    1(   6)  ---------------------------------------


    POTLOK:  cpu time    0.06: real time    0.06
    SETDIJ:  cpu time    0.01: real time    0.01
     EDDAV:  cpu time   11.26: real time   11.34
       DOS:  cpu time    0.00: real time    0.00
    CHARGE:  cpu time    0.28: real time    0.28
    MIXING:  cpu time    0.00: real time    0.00
    --------------------------------------------
      LOOP:  cpu time   11.62: real time   11.70

 eigenvalue-minimisations  :  4256
 total energy-change (2. order) : 0.8016873E+01  (-0.5230677E+01)
 number of electron     383.9997415 magnetization 
 augmentation part      121.5678641 magnetization 

 Broyden mixing:
  rms(total) = 0.18240E+01    rms(broyden)= 0.18212E+01
  rms(prec ) = 0.27021E+01
  weight for this iteration     100.00

 eigenvalues of (default mixing * dielectric matrix)
  average eigenvalue GAMMA=   0.6679
  0.6679

 Free energy of the ion-electron system (eV)
  ---------------------------------------------------
  alpha Z        PSCENC =      1531.59333187
  Ewald energy   TEWEN  =     88481.28852710
  -1/2 Hartree   DENC   =   -118404.08892864
  -exchange  EXHF       =         0.00000000
  -V(xc)+E(xc)   XCENC  =       195.74717489
  PAW double counting   =     22161.97466438   -21364.14165055
  entropy T*S    EENTRO =        -0.20282059
  eigenvalues    EBANDS =     -1477.29667821
  atomic energy  EATOM  =     28635.24933847
  ---------------------------------------------------
  free energy    TOTEN  =      -239.87704127 eV

  energy without entropy =     -239.67422068  energy(sigma->0) =     -239.80943441


--------------------------------------------------------------------------------------------------------




----------------------------------------- Iteration    1(   7)  ---------------------------------------


    POTLOK:  cpu time    0.05: real time    0.06
    SETDIJ:  cpu time    0.01: real time    0.01
     EDDAV:  cpu time   10.29: real time   10.32
       DOS:  cpu time    0.00: real time    0.00
    CHARGE:  cpu time    0.32: real time    0.32
    MIXING:  cpu time    0.00: real time    0.00
    --------------------------------------------
      LOOP:  cpu time   10.69: real time   10.72

 eigenvalue-minimisations  :  3872
 total energy-change (2. order) :-0.1475383E+01  (-0.5367577E+01)
 number of electron     383.9997076 magnetization 
 augmentation part      120.3041663 magnetization 

 Broyden mixing:
  rms(total) = 0.19524E+01    rms(broyden)= 0.19503E+01
  rms(prec ) = 0.27935E+01
  weight for this iteration     100.00

 eigenvalues of (default mixing * dielectric matrix)
  average eigenvalue GAMMA=   0.6522
  1.0599  0.2445

 Free energy of the ion-electron system (eV)
  ---------------------------------------------------
  alpha Z        PSCENC =      1531.59333187
  Ewald energy   TEWEN  =     88481.28852710
  -1/2 Hartree   DENC   =   -118618.93975535
  -exchange  EXHF       =         0.00000000
  -V(xc)+E(xc)   XCENC  =       194.07868632
  PAW double counting   =     22311.70127363   -21520.03734435
  entropy T*S    EENTRO =        -0.07496650
  eigenvalues    EBANDS =     -1256.21151506
  atomic energy  EATOM  =     28635.24933847
  ---------------------------------------------------
  free energy    TOTEN  =      -241.35242386 eV

  energy without entropy =     -241.27745736  energy(sigma->0) =     -241.32743503


--------------------------------------------------------------------------------------------------------




----------------------------------------- Iteration    1(   8)  ---------------------------------------


    POTLOK:  cpu time    0.06: real time    0.06
    SETDIJ:  cpu time    0.01: real time    0.01
     EDDAV:  cpu time   10.89: real time   10.99
       DOS:  cpu time    0.00: real time    0.00
    CHARGE:  cpu time    0.30: real time    0.30
    MIXING:  cpu time    0.00: real time    0.00
    --------------------------------------------
      LOOP:  cpu time   11.26: real time   11.37

 eigenvalue-minimisations  :  4112
 total energy-change (2. order) : 0.7531142E+01  (-0.1756559E+01)
 number of electron     383.9997080 magnetization 
 augmentation part      121.7054570 magnetization 

 Broyden mixing:
  rms(total) = 0.10486E+01    rms(broyden)= 0.10473E+01
  rms(prec ) = 0.17826E+01
  weight for this iteration     100.00

 eigenvalues of (default mixing * dielectric matrix)
  average eigenvalue GAMMA=   0.5740
  1.1568  0.3012  0.2642

 Free energy of the ion-electron system (eV)
  ---------------------------------------------------
  alpha Z        PSCENC =      1531.59333187
  Ewald energy   TEWEN  =     88481.28852710
  -1/2 Hartree   DENC   =   -118530.32599630
  -exchange  EXHF       =         0.00000000
  -V(xc)+E(xc)   XCENC  =       192.85216444
  PAW double counting   =     22457.29654139   -21677.29210536
  entropy T*S    EENTRO =         0.00427649
  eigenvalues    EBANDS =     -1324.48736032
  atomic energy  EATOM  =     28635.24933847
  ---------------------------------------------------
  free energy    TOTEN  =      -233.82128221 eV

  energy without entropy =     -233.82555870  energy(sigma->0) =     -233.82270771


--------------------------------------------------------------------------------------------------------




----------------------------------------- Iteration    1(   9)  ---------------------------------------


    POTLOK:  cpu time    0.06: real time    0.06
    SETDIJ:  cpu time    0.01: real time    0.01
     EDDAV:  cpu time   10.82: real time   10.84
       DOS:  cpu time    0.00: real time    0.00
    CHARGE:  cpu time    0.30: real time    0.30
    MIXING:  cpu time    0.00: real time    0.00
    --------------------------------------------
      LOOP:  cpu time   11.19: real time   11.22

 eigenvalue-minimisations  :  4112
 total energy-change (2. order) :-0.2284415E-02  (-0.9967164E+00)
 number of electron     383.9997441 magnetization 
 augmentation part      121.8055473 magnetization 

 Broyden mixing:
  rms(total) = 0.10684E+01    rms(broyden)= 0.10672E+01
  rms(prec ) = 0.20262E+01
  weight for this iteration     100.00

 eigenvalues of (default mixing * dielectric matrix)
  average eigenvalue GAMMA=   0.5530
  1.2887  0.5569  0.2596  0.1067

 Free energy of the ion-electron system (eV)
  ---------------------------------------------------
  alpha Z        PSCENC =      1531.59333187
  Ewald energy   TEWEN  =     88481.28852710
  -1/2 Hartree   DENC   =   -118517.08243221
  -exchange  EXHF       =         0.00000000
  -V(xc)+E(xc)   XCENC  =       192.77486253
  PAW double counting   =     22509.78835466   -21732.83531937
  entropy T*S    EENTRO =         0.02327944
  eigenvalues    EBANDS =     -1334.62350912
  atomic energy  EATOM  =     28635.24933847
  ---------------------------------------------------
  free energy    TOTEN  =      -233.82356663 eV

  energy without entropy =     -233.84684607  energy(sigma->0) =     -233.83132644


--------------------------------------------------------------------------------------------------------




----------------------------------------- Iteration    1(  10)  ---------------------------------------


    POTLOK:  cpu time    0.06: real time    0.06
    SETDIJ:  cpu time    0.01: real time    0.01
     EDDAV:  cpu time   10.95: real time   11.05
       DOS:  cpu time    0.00: real time    0.00
    CHARGE:  cpu time    0.30: real time    0.30
    MIXING:  cpu time    0.00: real time    0.00
    --------------------------------------------
      LOOP:  cpu time   11.32: real time   11.43

 eigenvalue-minimisations  :  4128
 total energy-change (2. order) : 0.1685282E+01  (-0.7065564E+00)
 number of electron     383.9997200 magnetization 
 augmentation part      121.9392197 magnetization 

 Broyden mixing:
  rms(total) = 0.37910E+00    rms(broyden)= 0.37791E+00
  rms(prec ) = 0.48189E+00
  weight for this iteration     100.00

 eigenvalues of (default mixing * dielectric matrix)
  average eigenvalue GAMMA=   0.5563
  1.3769  0.6102  0.4543  0.2414  0.0988

 Free energy of the ion-electron system (eV)
  ---------------------------------------------------
  alpha Z        PSCENC =      1531.59333187
  Ewald energy   TEWEN  =     88481.28852710
  -1/2 Hartree   DENC   =   -118536.25678984
  -exchange  EXHF       =         0.00000000
  -V(xc)+E(xc)   XCENC  =       192.74788619
  PAW double counting   =     22610.40356699   -21839.00637665
  entropy T*S    EENTRO =        -0.07141128
  eigenvalues    EBANDS =     -1308.08635774
  atomic energy  EATOM  =     28635.24933847
  ---------------------------------------------------
  free energy    TOTEN  =      -232.13828489 eV

  energy without entropy =     -232.06687361  energy(sigma->0) =     -232.11448113


--------------------------------------------------------------------------------------------------------




----------------------------------------- Iteration    1(  11)  ---------------------------------------


    POTLOK:  cpu time    0.06: real time    0.06
    SETDIJ:  cpu time    0.01: real time    0.01
     EDDAV:  cpu time    9.55: real time    9.57
       DOS:  cpu time    0.00: real time    0.00
    CHARGE:  cpu time    0.30: real time    0.30
    MIXING:  cpu time    0.00: real time    0.00
    --------------------------------------------
      LOOP:  cpu time    9.92: real time    9.98

 eigenvalue-minimisations  :  3552
 total energy-change (2. order) : 0.1992734E+00  (-0.1180097E+00)
 number of electron     383.9997215 magnetization 
 augmentation part      121.9439764 magnetization 

 Broyden mixing:
  rms(total) = 0.23152E+00    rms(broyden)= 0.23127E+00
  rms(prec ) = 0.27621E+00
  weight for this iteration     100.00

 eigenvalues of (default mixing * dielectric matrix)
  average eigenvalue GAMMA=   0.6495
  1.6837  0.9861  0.5443  0.3394  0.2443  0.0992

 Free energy of the ion-electron system (eV)
  ---------------------------------------------------
  alpha Z        PSCENC =      1531.59333187
  Ewald energy   TEWEN  =     88481.28852710
  -1/2 Hartree   DENC   =   -118539.39774337
  -exchange  EXHF       =         0.00000000
  -V(xc)+E(xc)   XCENC  =       192.81068352
  PAW double counting   =     22682.64745355   -21914.36593660
  entropy T*S    EENTRO =        -0.10929001
  eigenvalues    EBANDS =     -1301.65537600
  atomic energy  EATOM  =     28635.24933847
  ---------------------------------------------------
  free energy    TOTEN  =      -231.93901146 eV

  energy without entropy =     -231.82972146  energy(sigma->0) =     -231.90258146


--------------------------------------------------------------------------------------------------------




----------------------------------------- Iteration    1(  12)  ---------------------------------------


    POTLOK:  cpu time    0.06: real time    0.06
    SETDIJ:  cpu time    0.01: real time    0.01
     EDDAV:  cpu time    9.49: real time    9.57
       DOS:  cpu time    0.00: real time    0.00
    CHARGE:  cpu time    0.30: real time    0.30
    MIXING:  cpu time    0.00: real time    0.00
    --------------------------------------------
      LOOP:  cpu time    9.86: real time    9.95

 eigenvalue-minimisations  :  3504
 total energy-change (2. order) : 0.6912965E-02  (-0.5773571E-01)
 number of electron     383.9997222 magnetization 
 augmentation part      121.9321267 magnetization 

 Broyden mixing:
  rms(total) = 0.22423E+00    rms(broyden)= 0.22410E+00
  rms(prec ) = 0.27783E+00
  weight for this iteration     100.00

 eigenvalues of (default mixing * dielectric matrix)
  average eigenvalue GAMMA=   0.6826
  2.0591  1.1007  0.5131  0.5131  0.0990  0.2467  0.2467

 Free energy of the ion-electron system (eV)
  ---------------------------------------------------
  alpha Z        PSCENC =      1531.59333187
  Ewald energy   TEWEN  =     88481.28852710
  -1/2 Hartree   DENC   =   -118545.94060744
  -exchange  EXHF       =         0.00000000
  -V(xc)+E(xc)   XCENC  =       192.86694110
  PAW double counting   =     22776.15815055   -22011.73753420
  entropy T*S    EENTRO =        -0.11775473
  eigenvalues    EBANDS =     -1291.29249122
  atomic energy  EATOM  =     28635.24933847
  ---------------------------------------------------
  free energy    TOTEN  =      -231.93209850 eV

  energy without entropy =     -231.81434377  energy(sigma->0) =     -231.89284692


--------------------------------------------------------------------------------------------------------




----------------------------------------- Iteration    1(  13)  ---------------------------------------


    POTLOK:  cpu time    0.06: real time    0.06
    SETDIJ:  cpu time    0.01: real time    0.01
     EDDAV:  cpu time    9.30: real time    9.32
       DOS:  cpu time    0.00: real time    0.00
    CHARGE:  cpu time    0.29: real time    0.30
    MIXING:  cpu time    0.00: real time    0.00
    --------------------------------------------
      LOOP:  cpu time    9.67: real time    9.72

 eigenvalue-minimisations  :  3440
 total energy-change (2. order) : 0.4627471E-01  (-0.4220132E-01)
 number of electron     383.9997226 magnetization 
 augmentation part      121.9036875 magnetization 

 Broyden mixing:
  rms(total) = 0.13515E+00    rms(broyden)= 0.13497E+00
  rms(prec ) = 0.16945E+00
  weight for this iteration     100.00

 eigenvalues of (default mixing * dielectric matrix)
  average eigenvalue GAMMA=   0.7210
  2.3322  1.0577  0.7410  0.7410  0.0990  0.3257  0.2496  0.2216

 Free energy of the ion-electron system (eV)
  ---------------------------------------------------
  alpha Z        PSCENC =      1531.59333187
  Ewald energy   TEWEN  =     88481.28852710
  -1/2 Hartree   DENC   =   -118551.58109271
  -exchange  EXHF       =         0.00000000
  -V(xc)+E(xc)   XCENC  =       192.88266558
  PAW double counting   =     22831.10964918   -22068.90584690
  entropy T*S    EENTRO =        -0.11981907
  eigenvalues    EBANDS =     -1283.40257731
  atomic energy  EATOM  =     28635.24933847
  ---------------------------------------------------
  free energy    TOTEN  =      -231.88582379 eV

  energy without entropy =     -231.76600472  energy(sigma->0) =     -231.84588410


--------------------------------------------------------------------------------------------------------




----------------------------------------- Iteration    1(  14)  ---------------------------------------


    POTLOK:  cpu time    0.06: real time    0.06
    SETDIJ:  cpu time    0.01: real time    0.01
     EDDAV:  cpu time    9.54: real time    9.65
       DOS:  cpu time    0.00: real time    0.00
    CHARGE:  cpu time    0.30: real time    0.30
    MIXING:  cpu time    0.00: real time    0.00
    --------------------------------------------
      LOOP:  cpu time    9.91: real time   10.11

 eigenvalue-minimisations  :  3520
 total energy-change (2. order) : 0.1966139E-01  (-0.1412722E-01)
 number of electron     383.9997231 magnetization 
 augmentation part      121.8656513 magnetization 

 Broyden mixing:
  rms(total) = 0.79435E-01    rms(broyden)= 0.79328E-01
  rms(prec ) = 0.96572E-01
  weight for this iteration     100.00

 eigenvalues of (default mixing * dielectric matrix)
  average eigenvalue GAMMA=   0.7175
  2.4167  1.0492  1.0492  0.6461  0.4228  0.0990  0.3090  0.2465  0.2193

 Free energy of the ion-electron system (eV)
  ---------------------------------------------------
  alpha Z        PSCENC =      1531.59333187
  Ewald energy   TEWEN  =     88481.28852710
  -1/2 Hartree   DENC   =   -118558.77576076
  -exchange  EXHF       =         0.00000000
  -V(xc)+E(xc)   XCENC  =       192.86145989
  PAW double counting   =     22873.66421604   -22113.12682055
  entropy T*S    EENTRO =        -0.11980262
  eigenvalues    EBANDS =     -1274.50065184
  atomic energy  EATOM  =     28635.24933847
  ---------------------------------------------------
  free energy    TOTEN  =      -231.86616240 eV

  energy without entropy =     -231.74635978  energy(sigma->0) =     -231.82622820


--------------------------------------------------------------------------------------------------------




----------------------------------------- Iteration    1(  15)  ---------------------------------------


    POTLOK:  cpu time    0.06: real time    0.06
    SETDIJ:  cpu time    0.01: real time    0.01
     EDDAV:  cpu time    9.33: real time    9.35
       DOS:  cpu time    0.00: real time    0.00
    CHARGE:  cpu time    0.31: real time    0.32
    MIXING:  cpu time    0.00: real time    0.00
    --------------------------------------------
      LOOP:  cpu time    9.72: real time    9.81

 eigenvalue-minimisations  :  3456
 total energy-change (2. order) : 0.1138668E-01  (-0.4986874E-02)
 number of electron     383.9997231 magnetization 
 augmentation part      121.8691637 magnetization 

 Broyden mixing:
  rms(total) = 0.35585E-01    rms(broyden)= 0.35492E-01
  rms(prec ) = 0.44006E-01
  weight for this iteration     100.00

 eigenvalues of (default mixing * dielectric matrix)
  average eigenvalue GAMMA=   0.7118
  2.4360  1.1319  1.1319  0.6042  0.6042  0.0990  0.3457  0.3003  0.2467  0.2176

 Free energy of the ion-electron system (eV)
  ---------------------------------------------------
  alpha Z        PSCENC =      1531.59333187
  Ewald energy   TEWEN  =     88481.28852710
  -1/2 Hartree   DENC   =   -118561.84079036
  -exchange  EXHF       =         0.00000000
  -V(xc)+E(xc)   XCENC  =       192.85231298
  PAW double counting   =     22885.35253585   -22125.25318016
  entropy T*S    EENTRO =        -0.11754641
  eigenvalues    EBANDS =     -1270.97930506
  atomic energy  EATOM  =     28635.24933847
  ---------------------------------------------------
  free energy    TOTEN  =      -231.85477572 eV

  energy without entropy =     -231.73722931  energy(sigma->0) =     -231.81559358


--------------------------------------------------------------------------------------------------------




----------------------------------------- Iteration    1(  16)  ---------------------------------------


    POTLOK:  cpu time    0.06: real time    0.06
    SETDIJ:  cpu time    0.01: real time    0.01
     EDDAV:  cpu time    9.76: real time    9.87
       DOS:  cpu time    0.00: real time    0.00
    CHARGE:  cpu time    0.33: real time    0.33
    MIXING:  cpu time    0.00: real time    0.00
    --------------------------------------------
      LOOP:  cpu time   10.16: real time   10.28

 eigenvalue-minimisations  :  3632
 total energy-change (2. order) : 0.1745951E-02  (-0.1481431E-02)
 number of electron     383.9997231 magnetization 
 augmentation part      121.8728837 magnetization 

 Broyden mixing:
  rms(total) = 0.27477E-01    rms(broyden)= 0.27455E-01
  rms(prec ) = 0.35091E-01
  weight for this iteration     100.00

 eigenvalues of (default mixing * dielectric matrix)
  average eigenvalue GAMMA=   0.7120
  2.4392  1.2506  1.2506  0.6773  0.6773  0.0990  0.3978  0.3241  0.2164  0.2499
  0.2499

 Free energy of the ion-electron system (eV)
  ---------------------------------------------------
  alpha Z        PSCENC =      1531.59333187
  Ewald energy   TEWEN  =     88481.28852710
  -1/2 Hartree   DENC   =   -118564.00174563
  -exchange  EXHF       =         0.00000000
  -V(xc)+E(xc)   XCENC  =       192.85968162
  PAW double counting   =     22889.22365328   -22129.20404777
  entropy T*S    EENTRO =        -0.11706514
  eigenvalues    EBANDS =     -1268.74470358
  atomic energy  EATOM  =     28635.24933847
  ---------------------------------------------------
  free energy    TOTEN  =      -231.85302977 eV

  energy without entropy =     -231.73596463  energy(sigma->0) =     -231.81400806


--------------------------------------------------------------------------------------------------------




----------------------------------------- Iteration    1(  17)  ---------------------------------------


    POTLOK:  cpu time    0.06: real time    0.06
    SETDIJ:  cpu time    0.01: real time    0.01
     EDDAV:  cpu time    9.30: real time    9.32
       DOS:  cpu time    0.00: real time    0.00
    CHARGE:  cpu time    0.33: real time    0.33
    MIXING:  cpu time    0.00: real time    0.00
    --------------------------------------------
      LOOP:  cpu time    9.70: real time    9.73

 eigenvalue-minimisations  :  3440
 total energy-change (2. order) : 0.1595675E-02  (-0.5760374E-03)
 number of electron     383.9997231 magnetization 
 augmentation part      121.8723191 magnetization 

 Broyden mixing:
  rms(total) = 0.16691E-01    rms(broyden)= 0.16677E-01
  rms(prec ) = 0.22285E-01
  weight for this iteration     100.00

 eigenvalues of (default mixing * dielectric matrix)
  average eigenvalue GAMMA=   0.7167
  2.4374  1.4492  1.2988  0.7315  0.7315  0.4870  0.0990  0.3787  0.2940  0.2510
  0.2169  0.2248

 Free energy of the ion-electron system (eV)
  ---------------------------------------------------
  alpha Z        PSCENC =      1531.59333187
  Ewald energy   TEWEN  =     88481.28852710
  -1/2 Hartree   DENC   =   -118566.43267056
  -exchange  EXHF       =         0.00000000
  -V(xc)+E(xc)   XCENC  =       192.87151563
  PAW double counting   =     22891.98636720   -22131.97852301
  entropy T*S    EENTRO =        -0.11784175
  eigenvalues    EBANDS =     -1266.31147907
  atomic energy  EATOM  =     28635.24933847
  ---------------------------------------------------
  free energy    TOTEN  =      -231.85143410 eV

  energy without entropy =     -231.73359235  energy(sigma->0) =     -231.81215351


--------------------------------------------------------------------------------------------------------




----------------------------------------- Iteration    1(  18)  ---------------------------------------


    POTLOK:  cpu time    0.06: real time    0.06
    SETDIJ:  cpu time    0.01: real time    0.01
     EDDAV:  cpu time    9.58: real time    9.63
       DOS:  cpu time    0.00: real time    0.00
    CHARGE:  cpu time    0.32: real time    0.32
    MIXING:  cpu time    0.00: real time    0.00
    --------------------------------------------
      LOOP:  cpu time    9.98: real time   10.04

 eigenvalue-minimisations  :  3520
 total energy-change (2. order) : 0.1271646E-02  (-0.2010171E-03)
 number of electron     383.9997230 magnetization 
 augmentation part      121.8721932 magnetization 

 Broyden mixing:
  rms(total) = 0.99945E-02    rms(broyden)= 0.99836E-02
  rms(prec ) = 0.14325E-01
  weight for this iteration     100.00

 eigenvalues of (default mixing * dielectric matrix)
  average eigenvalue GAMMA=   0.7607
  2.4522  2.1040  1.1220  0.8644  0.8644  0.6325  0.4333  0.0990  0.3308  0.3019
  0.2461  0.2241  0.2143

 Free energy of the ion-electron system (eV)
  ---------------------------------------------------
  alpha Z        PSCENC =      1531.59333187
  Ewald energy   TEWEN  =     88481.28852710
  -1/2 Hartree   DENC   =   -118569.03903154
  -exchange  EXHF       =         0.00000000
  -V(xc)+E(xc)   XCENC  =       192.88445463
  PAW double counting   =     22893.49260105   -22133.45274973
  entropy T*S    EENTRO =        -0.11794798
  eigenvalues    EBANDS =     -1263.74868633
  atomic energy  EATOM  =     28635.24933847
  ---------------------------------------------------
  free energy    TOTEN  =      -231.85016245 eV

  energy without entropy =     -231.73221447  energy(sigma->0) =     -231.81084646


--------------------------------------------------------------------------------------------------------




----------------------------------------- Iteration    1(  19)  ---------------------------------------


    POTLOK:  cpu time    0.06: real time    0.06
    SETDIJ:  cpu time    0.01: real time    0.01
     EDDAV:  cpu time    9.17: real time    9.19
       DOS:  cpu time    0.00: real time    0.00
    CHARGE:  cpu time    0.32: real time    0.32
    MIXING:  cpu time    0.00: real time    0.00
    --------------------------------------------
      LOOP:  cpu time    9.57: real time    9.60

 eigenvalue-minimisations  :  3376
 total energy-change (2. order) : 0.1451315E-02  (-0.1298007E-03)
 number of electron     383.9997229 magnetization 
 augmentation part      121.8733017 magnetization 

 Broyden mixing:
  rms(total) = 0.88367E-02    rms(broyden)= 0.88305E-02
  rms(prec ) = 0.11867E-01
  weight for this iteration     100.00

 eigenvalues of (default mixing * dielectric matrix)
  average eigenvalue GAMMA=   0.7663
  2.4639  2.4639  0.9939  0.9939  0.9237  0.6727  0.4631  0.0990  0.3753  0.3024
  0.2932  0.2475  0.2216  0.2145

 Free energy of the ion-electron system (eV)
  ---------------------------------------------------
  alpha Z        PSCENC =      1531.59333187
  Ewald energy   TEWEN  =     88481.28852710
  -1/2 Hartree   DENC   =   -118573.29427744
  -exchange  EXHF       =         0.00000000
  -V(xc)+E(xc)   XCENC  =       192.90526018
  PAW double counting   =     22894.27423658   -22134.14693592
  entropy T*S    EENTRO =        -0.11768926
  eigenvalues    EBANDS =     -1259.60050272
  atomic energy  EATOM  =     28635.24933847
  ---------------------------------------------------
  free energy    TOTEN  =      -231.84871114 eV

  energy without entropy =     -231.73102188  energy(sigma->0) =     -231.80948138


--------------------------------------------------------------------------------------------------------




----------------------------------------- Iteration    1(  20)  ---------------------------------------


    POTLOK:  cpu time    0.06: real time    0.06
    SETDIJ:  cpu time    0.01: real time    0.01
     EDDAV:  cpu time    9.30: real time    9.33
       DOS:  cpu time    0.00: real time    0.00
    CHARGE:  cpu time    0.32: real time    0.32
    MIXING:  cpu time    0.00: real time    0.00
    --------------------------------------------
      LOOP:  cpu time    9.69: real time    9.74

 eigenvalue-minimisations  :  3376
 total energy-change (2. order) : 0.6051879E-03  (-0.6156701E-04)
 number of electron     383.9997229 magnetization 
 augmentation part      121.8741715 magnetization 

 Broyden mixing:
  rms(total) = 0.44665E-02    rms(broyden)= 0.44592E-02
  rms(prec ) = 0.69152E-02
  weight for this iteration     100.00

 eigenvalues of (default mixing * dielectric matrix)
  average eigenvalue GAMMA=   0.7586
  2.5713  2.4765  1.0278  1.0278  0.8308  0.6457  0.6457  0.0990  0.4338  0.3488
  0.3078  0.2808  0.2467  0.2220  0.2142

 Free energy of the ion-electron system (eV)
  ---------------------------------------------------
  alpha Z        PSCENC =      1531.59333187
  Ewald energy   TEWEN  =     88481.28852710
  -1/2 Hartree   DENC   =   -118575.58286583
  -exchange  EXHF       =         0.00000000
  -V(xc)+E(xc)   XCENC  =       192.91650011
  PAW double counting   =     22894.02102866   -22133.83886887
  entropy T*S    EENTRO =        -0.11805200
  eigenvalues    EBANDS =     -1257.37704546
  atomic energy  EATOM  =     28635.24933847
  ---------------------------------------------------
  free energy    TOTEN  =      -231.84810595 eV

  energy without entropy =     -231.73005395  energy(sigma->0) =     -231.80875528


--------------------------------------------------------------------------------------------------------




----------------------------------------- Iteration    1(  21)  ---------------------------------------


    POTLOK:  cpu time    0.06: real time    0.06
    SETDIJ:  cpu time    0.01: real time    0.01
     EDDAV:  cpu time    8.95: real time    8.97
       DOS:  cpu time    0.00: real time    0.00
    CHARGE:  cpu time    0.32: real time    0.32
    MIXING:  cpu time    0.00: real time    0.00
    --------------------------------------------
      LOOP:  cpu time    9.35: real time    9.38

 eigenvalue-minimisations  :  3280
 total energy-change (2. order) :-0.1624916E-04  (-0.3493279E-04)
 number of electron     383.9997229 magnetization 
 augmentation part      121.8741186 magnetization 

 Broyden mixing:
  rms(total) = 0.50242E-02    rms(broyden)= 0.50205E-02
  rms(prec ) = 0.71273E-02
  weight for this iteration     100.00

 eigenvalues of (default mixing * dielectric matrix)
  average eigenvalue GAMMA=   0.7986
  2.9002  2.4422  1.2433  1.2433  0.9109  0.9109  0.6792  0.4539  0.0990  0.3759
  0.3131  0.2934  0.2476  0.2140  0.2219  0.2293

 Free energy of the ion-electron system (eV)
  ---------------------------------------------------
[...]
      1.408303  0.813084  4.599510            0           0           0  
      0.000000  1.626168  2.299864            0           0           0  
      2.816605  0.000000  0.000000            0           0           0  
     -1.455771  7.286382  6.897687            0           0           0  
      4.224992  0.813084  4.599510            0           0           0  
      2.816605  1.626168  2.299864            0           0           0  
      5.633295  0.000000  0.000000            0           0           0  
      1.355446  7.282494  7.012690            0           0           0  
      7.041597  0.813084  4.599510            0           0           0  
      5.633295  1.626168  2.299864            0           0           0  
     -1.408302  2.439252  0.000000            0           0           0  
      6.981836  2.407824  6.921005            0           0           0  
      0.000000  3.252336  4.599510            0           0           0  
     -1.408345  4.065493  2.299864            0           0           0  
      1.408303  2.439252  0.000000            0           0           0  
      1.318400  2.364387  6.906614            0           0           0  
      2.816690  3.252336  4.599510            0           0           0  
      1.408260  4.065493  2.299864            0           0           0  
      4.224992  2.439252  0.000000            0           0           0  
      4.182145  2.407255  7.040610            0           0           0  
      5.633295  3.252336  4.599510            0           0           0  
      4.224950  4.065493  2.299864            0           0           0  
     -2.816647  4.878576  0.000000            0           0           0  
      5.620058  4.853358  6.925136            0           0           0  
     -1.408345  5.691660  4.599510            0           0           0  
     -2.816647  6.504744  2.299864            0           0           0  
     -0.000042  4.878576  0.000000            0           0           0  
     -0.033949  4.810071  7.121792            0           0           0  
      1.408345  5.691660  4.599510            0           0           0  
     -0.000042  6.504744  2.299864            0           0           0  
      2.816647  4.878576  0.000000            0           0           0  
      2.840856  4.898753  6.827159            0           0           0  
      4.224950  5.691660  4.599510            0           0           0  
      2.816647  6.504744  2.299864            0           0           0  
      2.562779  3.415357  8.838368            0           0           0  
      0.408932  5.235918  9.089639     0.172805   -0.241179   -0.676347  
      1.191236  4.497982  9.814581    -0.163733    0.184328    0.301136  
      1.021944  6.357150  8.543503     0.075234   -0.120649    0.087177  
     -0.455259  5.675969  9.632464    -0.182474   -0.221233   -0.439318  
 
   8 f  =   10.774580 THz    67.698683 2PiTHz  359.401295 cm-1    44.560097 meV
             X         Y         Z           dx          dy          dz
      0.000000  0.000000  0.000000            0           0           0  
      4.195624  7.291747  6.928065            0           0           0  
      1.408303  0.813084  4.599510            0           0           0  
      0.000000  1.626168  2.299864            0           0           0  
      2.816605  0.000000  0.000000            0           0           0  
     -1.455771  7.286382  6.897687            0           0           0  
      4.224992  0.813084  4.599510            0           0           0  
      2.816605  1.626168  2.299864            0           0           0  
      5.633295  0.000000  0.000000            0           0           0  
      1.355446  7.282494  7.012690            0           0           0  
      7.041597  0.813084  4.599510            0           0           0  
      5.633295  1.626168  2.299864            0           0           0  
     -1.408302  2.439252  0.000000            0           0           0  
      6.981836  2.407824  6.921005            0           0           0  
      0.000000  3.252336  4.599510            0           0           0  
     -1.408345  4.065493  2.299864            0           0           0  
      1.408303  2.439252  0.000000            0           0           0  
      1.318400  2.364387  6.906614            0           0           0  
      2.816690  3.252336  4.599510            0           0           0  
      1.408260  4.065493  2.299864            0           0           0  
      4.224992  2.439252  0.000000            0           0           0  
      4.182145  2.407255  7.040610            0           0           0  
      5.633295  3.252336  4.599510            0           0           0  
      4.224950  4.065493  2.299864            0           0           0  
     -2.816647  4.878576  0.000000            0           0           0  
      5.620058  4.853358  6.925136            0           0           0  
     -1.408345  5.691660  4.599510            0           0           0  
     -2.816647  6.504744  2.299864            0           0           0  
     -0.000042  4.878576  0.000000            0           0           0  
     -0.033949  4.810071  7.121792            0           0           0  
      1.408345  5.691660  4.599510            0           0           0  
     -0.000042  6.504744  2.299864            0           0           0  
      2.816647  4.878576  0.000000            0           0           0  
      2.840856  4.898753  6.827159            0           0           0  
      4.224950  5.691660  4.599510            0           0           0  
      2.816647  6.504744  2.299864            0           0           0  
      2.562779  3.415357  8.838368            0           0           0  
      0.408932  5.235918  9.089639     0.081620    0.057836    0.404638  
      1.191236  4.497982  9.814581    -0.276308    0.116815    0.827440  
      1.021944  6.357150  8.543503     0.121210   -0.074680   -0.053892  
     -0.455259  5.675969  9.632464     0.041384    0.160902    0.028924  
 
   9 f  =    8.732611 THz    54.868613 2PiTHz  291.288540 cm-1    36.115189 meV
             X         Y         Z           dx          dy          dz
      0.000000  0.000000  0.000000            0           0           0  
      4.195624  7.291747  6.928065            0           0           0  
      1.408303  0.813084  4.599510            0           0           0  
      0.000000  1.626168  2.299864            0           0           0  
      2.816605  0.000000  0.000000            0           0           0  
     -1.455771  7.286382  6.897687            0           0           0  
      4.224992  0.813084  4.599510            0           0           0  
      2.816605  1.626168  2.299864            0           0           0  
      5.633295  0.000000  0.000000            0           0           0  
      1.355446  7.282494  7.012690            0           0           0  
      7.041597  0.813084  4.599510            0           0           0  
      5.633295  1.626168  2.299864            0           0           0  
     -1.408302  2.439252  0.000000            0           0           0  
      6.981836  2.407824  6.921005            0           0           0  
      0.000000  3.252336  4.599510            0           0           0  
     -1.408345  4.065493  2.299864            0           0           0  
      1.408303  2.439252  0.000000            0           0           0  
      1.318400  2.364387  6.906614            0           0           0  
      2.816690  3.252336  4.599510            0           0           0  
      1.408260  4.065493  2.299864            0           0           0  
      4.224992  2.439252  0.000000            0           0           0  
      4.182145  2.407255  7.040610            0           0           0  
      5.633295  3.252336  4.599510            0           0           0  
      4.224950  4.065493  2.299864            0           0           0  
     -2.816647  4.878576  0.000000            0           0           0  
      5.620058  4.853358  6.925136            0           0           0  
     -1.408345  5.691660  4.599510            0           0           0  
     -2.816647  6.504744  2.299864            0           0           0  
     -0.000042  4.878576  0.000000            0           0           0  
     -0.033949  4.810071  7.121792            0           0           0  
      1.408345  5.691660  4.599510            0           0           0  
     -0.000042  6.504744  2.299864            0           0           0  
      2.816647  4.878576  0.000000            0           0           0  
      2.840856  4.898753  6.827159            0           0           0  
      4.224950  5.691660  4.599510            0           0           0  
      2.816647  6.504744  2.299864            0           0           0  
      2.562779  3.415357  8.838368            0           0           0  
      0.408932  5.235918  9.089639     0.572236   -0.283051   -0.013123  
      1.191236  4.497982  9.814581     0.436745   -0.485257    0.108496  
      1.021944  6.357150  8.543503     0.269071   -0.080062   -0.060411  
     -0.455259  5.675969  9.632464     0.260390    0.056718    0.028036  
 
  10 f  =    8.251808 THz    51.847640 2PiTHz  275.250684 cm-1    34.126748 meV
             X         Y         Z           dx          dy          dz
      0.000000  0.000000  0.000000            0           0           0  
      4.195624  7.291747  6.928065            0           0           0  
      1.408303  0.813084  4.599510            0           0           0  
      0.000000  1.626168  2.299864            0           0           0  
      2.816605  0.000000  0.000000            0           0           0  
     -1.455771  7.286382  6.897687            0           0           0  
      4.224992  0.813084  4.599510            0           0           0  
      2.816605  1.626168  2.299864            0           0           0  
      5.633295  0.000000  0.000000            0           0           0  
      1.355446  7.282494  7.012690            0           0           0  
      7.041597  0.813084  4.599510            0           0           0  
      5.633295  1.626168  2.299864            0           0           0  
     -1.408302  2.439252  0.000000            0           0           0  
      6.981836  2.407824  6.921005            0           0           0  
      0.000000  3.252336  4.599510            0           0           0  
     -1.408345  4.065493  2.299864            0           0           0  
      1.408303  2.439252  0.000000            0           0           0  
      1.318400  2.364387  6.906614            0           0           0  
      2.816690  3.252336  4.599510            0           0           0  
      1.408260  4.065493  2.299864            0           0           0  
      4.224992  2.439252  0.000000            0           0           0  
      4.182145  2.407255  7.040610            0           0           0  
      5.633295  3.252336  4.599510            0           0           0  
      4.224950  4.065493  2.299864            0           0           0  
     -2.816647  4.878576  0.000000            0           0           0  
      5.620058  4.853358  6.925136            0           0           0  
     -1.408345  5.691660  4.599510            0           0           0  
     -2.816647  6.504744  2.299864            0           0           0  
     -0.000042  4.878576  0.000000            0           0           0  
     -0.033949  4.810071  7.121792            0           0           0  
      1.408345  5.691660  4.599510            0           0           0  
     -0.000042  6.504744  2.299864            0           0           0  
      2.816647  4.878576  0.000000            0           0           0  
      2.840856  4.898753  6.827159            0           0           0  
      4.224950  5.691660  4.599510            0           0           0  
      2.816647  6.504744  2.299864            0           0           0  
      2.562779  3.415357  8.838368            0           0           0  
      0.408932  5.235918  9.089639     0.241926    0.480814   -0.224246  
      1.191236  4.497982  9.814581    -0.530604   -0.224489   -0.209824  
      1.021944  6.357150  8.543503     0.307025    0.076399    0.013847  
     -0.455259  5.675969  9.632464     0.175553    0.379695   -0.093604  
 
  11 f  =    4.316334 THz    27.120324 2PiTHz  143.977385 cm-1    17.850927 meV
             X         Y         Z           dx          dy          dz
      0.000000  0.000000  0.000000            0           0           0  
      4.195624  7.291747  6.928065            0           0           0  
      1.408303  0.813084  4.599510            0           0           0  
      0.000000  1.626168  2.299864            0           0           0  
      2.816605  0.000000  0.000000            0           0           0  
     -1.455771  7.286382  6.897687            0           0           0  
      4.224992  0.813084  4.599510            0           0           0  
      2.816605  1.626168  2.299864            0           0           0  
      5.633295  0.000000  0.000000            0           0           0  
      1.355446  7.282494  7.012690            0           0           0  
      7.041597  0.813084  4.599510            0           0           0  
      5.633295  1.626168  2.299864            0           0           0  
     -1.408302  2.439252  0.000000            0           0           0  
      6.981836  2.407824  6.921005            0           0           0  
      0.000000  3.252336  4.599510            0           0           0  
     -1.408345  4.065493  2.299864            0           0           0  
      1.408303  2.439252  0.000000            0           0           0  
      1.318400  2.364387  6.906614            0           0           0  
      2.816690  3.252336  4.599510            0           0           0  
      1.408260  4.065493  2.299864            0           0           0  
      4.224992  2.439252  0.000000            0           0           0  
      4.182145  2.407255  7.040610            0           0           0  
      5.633295  3.252336  4.599510            0           0           0  
      4.224950  4.065493  2.299864            0           0           0  
     -2.816647  4.878576  0.000000            0           0           0  
      5.620058  4.853358  6.925136            0           0           0  
     -1.408345  5.691660  4.599510            0           0           0  
     -2.816647  6.504744  2.299864            0           0           0  
     -0.000042  4.878576  0.000000            0           0           0  
     -0.033949  4.810071  7.121792            0           0           0  
      1.408345  5.691660  4.599510            0           0           0  
     -0.000042  6.504744  2.299864            0           0           0  
      2.816647  4.878576  0.000000            0           0           0  
      2.840856  4.898753  6.827159            0           0           0  
      4.224950  5.691660  4.599510            0           0           0  
      2.816647  6.504744  2.299864            0           0           0  
      2.562779  3.415357  8.838368            0           0           0  
      0.408932  5.235918  9.089639    -0.327589   -0.421523    0.061790  
      1.191236  4.497982  9.814581    -0.475491   -0.657885   -0.006232  
      1.021944  6.357150  8.543503    -0.084704   -0.131006   -0.029871  
     -0.455259  5.675969  9.632464    -0.094812   -0.131786    0.025625  
 
  12 f/i=   27.463662 THz   172.559279 2PiTHz  916.089135 cm-1   113.580618 meV
             X         Y         Z           dx          dy          dz
      0.000000  0.000000  0.000000            0           0           0  
      4.195624  7.291747  6.928065            0           0           0  
      1.408303  0.813084  4.599510            0           0           0  
      0.000000  1.626168  2.299864            0           0           0  
      2.816605  0.000000  0.000000            0           0           0  
     -1.455771  7.286382  6.897687            0           0           0  
      4.224992  0.813084  4.599510            0           0           0  
      2.816605  1.626168  2.299864            0           0           0  
      5.633295  0.000000  0.000000            0           0           0  
      1.355446  7.282494  7.012690            0           0           0  
      7.041597  0.813084  4.599510            0           0           0  
      5.633295  1.626168  2.299864            0           0           0  
     -1.408302  2.439252  0.000000            0           0           0  
      6.981836  2.407824  6.921005            0           0           0  
      0.000000  3.252336  4.599510            0           0           0  
     -1.408345  4.065493  2.299864            0           0           0  
      1.408303  2.439252  0.000000            0           0           0  
      1.318400  2.364387  6.906614            0           0           0  
      2.816690  3.252336  4.599510            0           0           0  
      1.408260  4.065493  2.299864            0           0           0  
      4.224992  2.439252  0.000000            0           0           0  
      4.182145  2.407255  7.040610            0           0           0  
      5.633295  3.252336  4.599510            0           0           0  
      4.224950  4.065493  2.299864            0           0           0  
     -2.816647  4.878576  0.000000            0           0           0  
      5.620058  4.853358  6.925136            0           0           0  
     -1.408345  5.691660  4.599510            0           0           0  
     -2.816647  6.504744  2.299864            0           0           0  
     -0.000042  4.878576  0.000000            0           0           0  
     -0.033949  4.810071  7.121792            0           0           0  
      1.408345  5.691660  4.599510            0           0           0  
     -0.000042  6.504744  2.299864            0           0           0  
      2.816647  4.878576  0.000000            0           0           0  
      2.840856  4.898753  6.827159            0           0           0  
      4.224950  5.691660  4.599510            0           0           0  
      2.816647  6.504744  2.299864            0           0           0  
      2.562779  3.415357  8.838368            0           0           0  
      0.408932  5.235918  9.089639     0.183015    0.455770    0.093011  
      1.191236  4.497982  9.814581     0.066339   -0.223025    0.040434  
      1.021944  6.357150  8.543503    -0.260137   -0.542838    0.476298  
     -0.455259  5.675969  9.632464    -0.173412   -0.273985   -0.002954  
 
 Finite differences POTIM=  2.000000000000000E-002
     LOOP+:  cpu time   80.47: real time   81.17
    4ORBIT:  cpu time    0.00: real time    0.00

 total amount of memory used by VASP on root node    66779. kBytes
========================================================================

   base      :      30000. kBytes
   nonlr-proj:       7007. kBytes
   fftplans  :       1570. kBytes
   grid      :       7444. kBytes
   one-center:        637. kBytes
   wavefun   :      20121. kBytes
 
  
  
 General timing and accounting informations for this job:
 ========================================================
  
                  Total CPU time used (sec):     2326.961
                            User time (sec):     2301.932
                          System time (sec):       25.029
                         Elapsed time (sec):     2426.531
  
                   Maximum memory used (kb):      133636.
                   Average memory used (kb):           0.
  
                          Minor page faults:        24380
                          Major page faults:            3
                 Voluntary context switches:         4174
