 vasp.5.4.1 24Jun15 (build Jan 05 2017 13:10:23) complex                        
  
 executed on             LinuxIFC date 2017.02.21  08:46:12
 running on   16 total cores
 distrk:  each k-point on   16 cores,    1 groups
 distr:  one band on NCORES_PER_BAND=   1 cores,   16 groups


--------------------------------------------------------------------------------------------------------


 INCAR:
 POTCAR:   PAW_GGA Cu 05Jan2001                   
 POTCAR:   PAW_GGA C 05Jan2001                    
 POTCAR:   PAW_GGA O 05Jan2001                    
 POTCAR:   PAW_GGA H 07Jul1998                    

 ----------------------------------------------------------------------------- 
|                                                                             |
|           W    W    AA    RRRRR   N    N  II  N    N   GGGG   !!!           |
|           W    W   A  A   R    R  NN   N  II  NN   N  G    G  !!!           |
|           W    W  A    A  R    R  N N  N  II  N N  N  G       !!!           |
|           W WW W  AAAAAA  RRRRR   N  N N  II  N  N N  G  GGG   !            |
|           WW  WW  A    A  R   R   N   NN  II  N   NN  G    G                |
|           W    W  A    A  R    R  N    N  II  N    N   GGGG   !!!           |
|                                                                             |
|      For optimal performance we recommend to set                            |
|        NCORE= 4 - approx SQRT( number of cores)                             |
|      NCORE specifies how many cores store one orbital (NPAR=cpu/NCORE).     |
|      This setting can  greatly improve the performance of VASP for DFT.     |
|      The default, NPAR=number of cores might be grossly inefficient         |
|      on modern multi-core architectures or massively parallel machines.     |
|      Do your own testing !!!!                                               |
|      Unfortunately you need to use the default for GW and RPA calculations. |
|      (for HF NCORE is supported but not extensively tested yet)             |
|                                                                             |
 ----------------------------------------------------------------------------- 

 POTCAR:   PAW_GGA Cu 05Jan2001                   
   VRHFIN =Cu: d10 p1                                                           
   LEXCH  = 91                                                                  
   EATOM  =  1393.0707 eV,  102.3878 Ry                                         
                                                                                
   TITEL  = PAW_GGA Cu 05Jan2001                                                
   LULTRA =        F    use ultrasoft PP ?                                      
   IUNSCR =        1    unscreen: 0-lin 1-nonlin 2-no                           
   RPACOR =    2.000    partial core radius                                     
   POMASS =   63.546; ZVAL   =   11.000    mass and valenz                      
   RCORE  =    2.300    outmost cutoff radius                                   
   RWIGS  =    2.480; RWIGS  =    1.312    wigner-seitz radius (au A)           
   ENMAX  =  273.246; ENMIN  =  204.934 eV                                      
   RCLOC  =    1.712    cutoff for local pot                                    
   LCOR   =        T    correct aug charges                                     
   LPAW   =        T    paw PP                                                  
   EAUG   =  516.456                                                            
   DEXC   =    -.002                                                            
   RMAX   =    2.789    core radius for proj-oper                               
   RAUG   =    1.300    factor for augmentation sphere                          
   RDEP   =    2.302    core radius for depl-charge                             
   QCUT   =   -4.481; QGAM   =    8.963    optimization parameters              
                                                                                
   Description                                                                  
     l     E      TYP  RCUT    TYP  RCUT                                        
     2   .000     23  2.300                                                     
     2   .000     23  2.300                                                     
     0   .000     23  2.300                                                     
     0   .000     23  2.300                                                     
     1  -.200     23  2.300                                                     
     1   .000     23  2.300                                                     
     3   .000      7   .000                                                     
  local pseudopotential read in
  partial core-charges read in
  atomic valenz-charges read in
  non local Contribution for L=           2  read in
    real space projection operators read in
  non local Contribution for L=           2  read in
    real space projection operators read in
  non local Contribution for L=           0  read in
    real space projection operators read in
  non local Contribution for L=           0  read in
    real space projection operators read in
  non local Contribution for L=           1  read in
    real space projection operators read in
  non local Contribution for L=           1  read in
    real space projection operators read in
    PAW grid and wavefunctions read in
 
   number of l-projection  operators is LMAX  =           6
   number of lm-projection operators is LMMAX =          18
 
 POTCAR:   PAW_GGA C 05Jan2001                    
   VRHFIN =C: s2p2                                                              
   LEXCH  = 91                                                                  
   EATOM  =   147.4688 eV,   10.8386 Ry                                         
                                                                                
   TITEL  = PAW_GGA C 05Jan2001                                                 
   LULTRA =        F    use ultrasoft PP ?                                      
   IUNSCR =        0    unscreen: 0-lin 1-nonlin 2-no                           
   RPACOR =     .000    partial core radius                                     
   POMASS =   12.011; ZVAL   =    4.000    mass and valenz                      
   RCORE  =    1.500    outmost cutoff radius                                   
   RWIGS  =    1.630; RWIGS  =     .863    wigner-seitz radius (au A)           
   ENMAX  =  400.000; ENMIN  =  300.000 eV                                      
   ICORE  =        2    local potential                                         
   LCOR   =        T    correct aug charges                                     
   LPAW   =        T    paw PP                                                  
   EAUG   =  644.873                                                            
   DEXC   =     .000                                                            
   RMAX   =    2.266    core radius for proj-oper                               
   RAUG   =    1.300    factor for augmentation sphere                          
   RDEP   =    1.501    radius for radial grids                                 
   RDEPT  =    1.300    core radius for aug-charge                              
   QCUT   =   -5.516; QGAM   =   11.033    optimization parameters              
                                                                                
   Description                                                                  
     l     E      TYP  RCUT    TYP  RCUT                                        
     0   .000     23  1.200                                                     
     0   .000     23  1.200                                                     
     1   .000     23  1.500                                                     
     1  2.500     23  1.500                                                     
     2   .000      7  1.500                                                     
  local pseudopotential read in
  atomic valenz-charges read in
  non local Contribution for L=           0  read in
    real space projection operators read in
  non local Contribution for L=           0  read in
    real space projection operators read in
  non local Contribution for L=           1  read in
    real space projection operators read in
  non local Contribution for L=           1  read in
    real space projection operators read in
    PAW grid and wavefunctions read in
 
   number of l-projection  operators is LMAX  =           4
   number of lm-projection operators is LMMAX =           8
 
 POTCAR:   PAW_GGA O 05Jan2001                    
   VRHFIN =O: s2p4                                                              
   LEXCH  = 91                                                                  
   EATOM  =   433.0277 eV,   31.8266 Ry                                         
                                                                                
   TITEL  = PAW_GGA O 05Jan2001                                                 
   LULTRA =        F    use ultrasoft PP ?                                      
   IUNSCR =        0    unscreen: 0-lin 1-nonlin 2-no                           
   RPACOR =     .000    partial core radius                                     
   POMASS =   16.000; ZVAL   =    6.000    mass and valenz                      
   RCORE  =    1.520    outmost cutoff radius                                   
   RWIGS  =    1.550; RWIGS  =     .820    wigner-seitz radius (au A)           
   ENMAX  =  400.000; ENMIN  =  300.000 eV                                      
   ICORE  =        2    local potential                                         
   LCOR   =        T    correct aug charges                                     
   LPAW   =        T    paw PP                                                  
   EAUG   =  605.392                                                            
   DEXC   =     .000                                                            
   RMAX   =    2.264    core radius for proj-oper                               
   RAUG   =    1.300    factor for augmentation sphere                          
   RDEP   =    1.550    radius for radial grids                                 
   QCUT   =   -5.520; QGAM   =   11.040    optimization parameters              
                                                                                
   Description                                                                  
     l     E      TYP  RCUT    TYP  RCUT                                        
     0   .000     23  1.200                                                     
     0  -.700     23  1.200                                                     
     1   .000     23  1.520                                                     
     1   .600     23  1.520                                                     
     2   .000      7  1.500                                                     
  local pseudopotential read in
  atomic valenz-charges read in
  non local Contribution for L=           0  read in
    real space projection operators read in
  non local Contribution for L=           0  read in
    real space projection operators read in
  non local Contribution for L=           1  read in
    real space projection operators read in
  non local Contribution for L=           1  read in
    real space projection operators read in
    PAW grid and wavefunctions read in
 
   number of l-projection  operators is LMAX  =           4
   number of lm-projection operators is LMMAX =           8
 
 POTCAR:   PAW_GGA H 07Jul1998                    
   VRHFIN =H: ultrasoft test                                                    
   LEXCH  = 91                                                                  
   EATOM  =    12.5313 eV,     .9210 Ry                                         
                                                                                
   TITEL  = PAW_GGA H 07Jul1998                                                 
   LULTRA =        F    use ultrasoft PP ?                                      
   IUNSCR =        0    unscreen: 0-lin 1-nonlin 2-no                           
   RPACOR =     .000    partial core radius                                     
   POMASS =    1.000; ZVAL   =    1.000    mass and valenz                      
   RCORE  =    1.100    outmost cutoff radius                                   
   RWIGS  =     .700; RWIGS  =     .370    wigner-seitz radius (au A)           
   ENMAX  =  250.000; ENMIN  =  200.000 eV                                      
   RCLOC  =     .701    cutoff for local pot                                    
   LCOR   =        T    correct aug charges                                     
   LPAW   =        T    paw PP                                                  
   EAUG   =  400.000                                                            
   RMAX   =    2.174    core radius for proj-oper                               
   RAUG   =    1.200    factor for augmentation sphere                          
   RDEP   =    1.112    core radius for depl-charge                             
   QCUT   =   -5.749; QGAM   =   11.498    optimization parameters              
                                                                                
   Description                                                                  
     l     E      TYP  RCUT    TYP  RCUT                                        
     0   .000     23  1.100                                                     
     0   .500     23  1.100                                                     
     1  -.300     23  1.100                                                     
  local pseudopotential read in
  atomic valenz-charges read in
  non local Contribution for L=           0  read in
    real space projection operators read in
  non local Contribution for L=           0  read in
    real space projection operators read in
  non local Contribution for L=           1  read in
    real space projection operators read in
    PAW grid and wavefunctions read in
 
   number of l-projection  operators is LMAX  =           3
   number of lm-projection operators is LMMAX =           5
 
 Optimization of the real space projectors (new method)

 maximal supplied QI-value         = 16.25
 optimisation between [QCUT,QGAM] = [ 10.24, 20.48] = [ 29.35,117.42] Ry 
 Optimized for a Real-space Cutoff    1.30 Angstroem

   l    n(q)    QCUT    max X(q) W(low)/X(q) W(high)/X(q)  e(spline) 
   2      7    10.239     4.974    0.11E-03    0.23E-03    0.25E-07
   2      7    10.239    13.453    0.18E-02    0.27E-02    0.58E-07
   0      8    10.239    13.269    0.41E-04    0.59E-05    0.12E-07
   0      8    10.239    44.490    0.74E-03    0.41E-03    0.13E-06
   1      7    10.239     5.266    0.38E-04    0.19E-03    0.28E-07
   1      7    10.239     7.318    0.35E-03    0.93E-03    0.19E-06
 Optimization of the real space projectors (new method)

 maximal supplied QI-value         = 25.13
 optimisation between [QCUT,QGAM] = [ 10.05, 20.36] = [ 28.30,116.06] Ry 
 Optimized for a Real-space Cutoff    1.12 Angstroem

   l    n(q)    QCUT    max X(q) W(low)/X(q) W(high)/X(q)  e(spline) 
   0      7    10.053     5.568    0.10E-03    0.98E-04    0.34E-07
   0      7    10.053    69.244    0.97E-03    0.17E-02    0.82E-07
   1      6    10.053     2.779    0.31E-03    0.25E-03    0.52E-07
   1      6    10.053     4.506    0.11E-02    0.54E-03    0.12E-06
 Optimization of the real space projectors (new method)

 maximal supplied QI-value         = 24.76
 optimisation between [QCUT,QGAM] = [ 10.15, 20.30] = [ 28.85,115.39] Ry 
 Optimized for a Real-space Cutoff    1.12 Angstroem

   l    n(q)    QCUT    max X(q) W(low)/X(q) W(high)/X(q)  e(spline) 
   0      7    10.150     4.138    0.13E-03    0.13E-03    0.41E-07
   0      7    10.150     8.500    0.96E-03    0.15E-02    0.11E-06
   1      6    10.150     2.482    0.47E-03    0.21E-03    0.18E-07
   1      6    10.150     3.878    0.20E-02    0.11E-02    0.97E-07
 Optimization of the real space projectors (new method)

 maximal supplied QI-value         = 34.20
 optimisation between [QCUT,QGAM] = [  9.92, 20.18] = [ 27.55,114.04] Ry 
 Optimized for a Real-space Cutoff    1.06 Angstroem

   l    n(q)    QCUT    max X(q) W(low)/X(q) W(high)/X(q)  e(spline) 
   0      6     9.919     4.435    0.27E-03    0.21E-03    0.24E-07
   0      6     9.919    16.011    0.17E-02    0.71E-03    0.14E-06
   1      6     9.919     4.617    0.35E-03    0.20E-02    0.14E-06
 PAW_GGA Cu 05Jan2001                   :
 energy of atom  1       EATOM=-1393.0707
 kinetic energy error for atom=    0.0117 (will be added to EATOM!!)
 PAW_GGA C 05Jan2001                    :
 energy of atom  2       EATOM= -147.4688
 kinetic energy error for atom=    0.0288 (will be added to EATOM!!)
 PAW_GGA O 05Jan2001                    :
 energy of atom  3       EATOM= -433.0277
 kinetic energy error for atom=    0.1156 (will be added to EATOM!!)
 PAW_GGA H 07Jul1998                    :
 energy of atom  4       EATOM=  -12.5313
 kinetic energy error for atom=    0.0098 (will be added to EATOM!!)
 
 
 POSCAR: Cu   C    O    H                        
  positions in direct lattice
  No initial velocities read in
 exchange correlation table for  LEXCH =        7
   RHO(1)=    0.500       N(1)  =     2000
   RHO(2)=  100.500       N(2)  =     4000

 VTST: version 3.1, (03/28/14)

 CHAIN: initializing optimizer
 
 OPT: Using VASP Dynamics algorithm
 CHAIN: Read ICHAIN            0
 
 POSCAR: Cu   C    O    H                        
  positions in direct lattice
  No initial velocities read in
 


--------------------------------------------------------------------------------------------------------


 ion  position               nearest neighbor table
   1  0.000  0.001  0.180-   3 2.53   7 2.53  11 2.54  15 2.54   9 2.55   5 2.56   5 2.56  16 2.56
                            12 2.56   9 2.56   4 2.60   8 2.60
   2  0.000  0.000  0.410-   4 2.48   8 2.48  12 2.52  16 2.52   6 2.55  10 2.55  10 2.56   6 2.57

   3  0.250  0.250  0.065-   5 2.53   1 2.53  13 2.53   9 2.54  11 2.56  11 2.56   7 2.56   7 2.56

   4  0.256  0.248  0.301-   2 2.48   8 2.49  10 2.50  12 2.55  14 2.56  12 2.56   5 2.58  13 2.59
                             1 2.60   6 2.60   9 2.60   8 2.63
   5  0.500  0.000  0.179-   7 2.53   3 2.53  15 2.53  11 2.53  13 2.55   1 2.56   1 2.56  13 2.56
                            16 2.56  12 2.56   8 2.57   4 2.58
   6  0.498  0.980  0.420-  17 2.15  14 2.46   2 2.55  12 2.57   2 2.57  16 2.58   8 2.60   4 2.60
                            14 2.65
   7  0.750  0.250  0.065-   5 2.53   1 2.53  13 2.53   9 2.54  15 2.56  15 2.56   3 2.56   3 2.56

   8  0.742  0.246  0.301-   2 2.48   4 2.49  10 2.50  16 2.55  14 2.55  16 2.57   5 2.57  13 2.59
                             6 2.60   1 2.60   9 2.61   4 2.63
   9  0.000  0.500  0.181-  16 2.54  12 2.54   3 2.54   7 2.54  11 2.54  15 2.54   1 2.55  13 2.56
                            13 2.56   1 2.56   4 2.60   8 2.61
  10  0.998  0.500  0.410-   8 2.50   4 2.50  16 2.51  12 2.52  14 2.54   2 2.55   2 2.56  14 2.58

  11  0.250  0.750  0.065-   5 2.53  13 2.53   1 2.54   9 2.54   3 2.56   3 2.56  15 2.56  15 2.56

  12  0.250  0.748  0.297-  10 2.52   2 2.52   9 2.54  13 2.55  16 2.55   4 2.55   4 2.56   1 2.56
                             5 2.56  16 2.56   6 2.57  14 2.61
  13  0.500  0.501  0.180-  15 2.53  11 2.53   7 2.53   3 2.53  16 2.54  12 2.55   5 2.55   9 2.56
                             9 2.56   5 2.56   8 2.59   4 2.59
  14  0.502  0.498  0.419-  17 2.01   6 2.46  10 2.54   8 2.55   4 2.56  10 2.58  16 2.60  12 2.61
                             6 2.65
  15  0.750  0.750  0.065-   5 2.53  13 2.53   1 2.54   9 2.54   7 2.56   7 2.56  11 2.56  11 2.56

  16  0.749  0.748  0.297-  10 2.51   2 2.52   9 2.54  13 2.54   8 2.55  12 2.55   5 2.56   1 2.56
                            12 2.56   8 2.57   6 2.58  14 2.60
  17  0.498  0.714  0.528-  19 1.15  18 1.22  14 2.01   6 2.15
  18  0.543  0.881  0.583-  17 1.22
  19  0.436  0.511  0.552-  17 1.15
 
  LATTYP: Found a simple tetragonal cell.
 ALAT       =     5.1119999886
 C/A-ratio  =     3.0168427429
  
  Lattice vectors:
  
 A1 = (   5.1119999886,   0.0000000000,   0.0000000000)
 A2 = (  -0.0000088492,   5.1119999885,   0.0000000000)
 A3 = (  -0.0000266965,  -0.0000266965,  15.4221000671)


Analysis of symmetry for initial positions (statically):
=====================================================================
 Subroutine PRICEL returns:
 Original cell was already a primitive cell.
 

 Routine SETGRP: Setting up the symmetry group for a 
 simple tetragonal supercell.


 Subroutine GETGRP returns: Found  1 space group operations
 (whereof  1 operations were pure point group operations)
 out of a pool of 16 trial point group operations.


The static configuration has the point symmetry C_1 .


Analysis of symmetry for dynamics (positions and initial velocities):
=====================================================================
 Subroutine PRICEL returns:
 Original cell was already a primitive cell.
 

 Routine SETGRP: Setting up the symmetry group for a 
 simple tetragonal supercell.


 Subroutine GETGRP returns: Found  1 space group operations
 (whereof  1 operations were pure point group operations)
 out of a pool of 16 trial point group operations.


The dynamic configuration has the point symmetry C_1 .


Analysis of constrained symmetry for selective dynamics:
=====================================================================
 Subroutine PRICEL returns:
 Original cell was already a primitive cell.
 

 Routine SETGRP: Setting up the symmetry group for a 
 simple tetragonal supercell.


 Subroutine GETGRP returns: Found  1 space group operations
 (whereof  1 operations were pure point group operations)
 out of a pool of 16 trial point group operations.


The constrained configuration has the point symmetry C_1 .


 Subroutine INISYM returns: Found  1 space group operations
 (whereof  1 operations are pure point group operations),
 and found     1 'primitive' translations

 
 
 KPOINTS: auto                                    

Automatic generation of k-mesh.
Space group operators:
 irot       det(A)        alpha          n_x          n_y          n_z        tau_x        tau_y        tau_z
    1     1.000000     0.000000     1.000000     0.000000     0.000000     0.000000     0.000000     0.000000
 
 Subroutine IBZKPT returns following result:
 ===========================================
 
 Found     13 irreducible k-points:
 
 Following reciprocal coordinates:
            Coordinates               Weight
  0.000000  0.000000  0.000000      1.000000
  0.200000 -0.000000 -0.000000      2.000000
  0.400000 -0.000000 -0.000000      2.000000
  0.000000  0.200000  0.000000      2.000000
  0.200000  0.200000  0.000000      2.000000
  0.400000  0.200000  0.000000      2.000000
 -0.400000  0.200000  0.000000      2.000000
 -0.200000  0.200000  0.000000      2.000000
  0.000000  0.400000  0.000000      2.000000
  0.200000  0.400000 -0.000000      2.000000
  0.400000  0.400000  0.000000      2.000000
 -0.400000  0.400000  0.000000      2.000000
 -0.200000  0.400000 -0.000000      2.000000
 
 Following cartesian coordinates:
            Coordinates               Weight
  0.000000  0.000000  0.000000      1.000000
  0.039124  0.000000  0.000000      2.000000
  0.078247  0.000000  0.000000      2.000000
  0.000000  0.039124  0.000000      2.000000
  0.039124  0.039124  0.000000      2.000000
  0.078247  0.039124  0.000000      2.000000
 -0.078247  0.039123 -0.000000      2.000000
 -0.039124  0.039124 -0.000000      2.000000
  0.000000  0.078247  0.000000      2.000000
  0.039124  0.078247  0.000000      2.000000
  0.078247  0.078247  0.000000      2.000000
 -0.078247  0.078247 -0.000000      2.000000
 -0.039124  0.078247  0.000000      2.000000
 
 
 Subroutine IBZKPT_HF returns following result:
 ==============================================
 
 Found     25 k-points in 1st BZ
 the following     25 k-points will be used (e.g. in the exchange kernel)
 Following reciprocal coordinates:   # in IRBZ
  0.000000  0.000000  0.000000    0.04000000   1 t-inv F
  0.200000 -0.000000 -0.000000    0.04000000   2 t-inv F
  0.400000 -0.000000 -0.000000    0.04000000   3 t-inv F
  0.000000  0.200000  0.000000    0.04000000   4 t-inv F
  0.200000  0.200000  0.000000    0.04000000   5 t-inv F
  0.400000  0.200000  0.000000    0.04000000   6 t-inv F
 -0.400000  0.200000  0.000000    0.04000000   7 t-inv F
 -0.200000  0.200000  0.000000    0.04000000   8 t-inv F
  0.000000  0.400000  0.000000    0.04000000   9 t-inv F
  0.200000  0.400000 -0.000000    0.04000000  10 t-inv F
  0.400000  0.400000  0.000000    0.04000000  11 t-inv F
 -0.400000  0.400000  0.000000    0.04000000  12 t-inv F
 -0.200000  0.400000 -0.000000    0.04000000  13 t-inv F
 -0.200000  0.000000  0.000000    0.04000000   2 t-inv T
 -0.400000  0.000000  0.000000    0.04000000   3 t-inv T
  0.000000 -0.200000  0.000000    0.04000000   4 t-inv T
 -0.200000 -0.200000 -0.000000    0.04000000   5 t-inv T
 -0.400000 -0.200000  0.000000    0.04000000   6 t-inv T
  0.400000 -0.200000  0.000000    0.04000000   7 t-inv T
  0.200000 -0.200000 -0.000000    0.04000000   8 t-inv T
  0.000000 -0.400000  0.000000    0.04000000   9 t-inv T
 -0.200000 -0.400000  0.000000    0.04000000  10 t-inv T
 -0.400000 -0.400000 -0.000000    0.04000000  11 t-inv T
  0.400000 -0.400000 -0.000000    0.04000000  12 t-inv T
  0.200000 -0.400000  0.000000    0.04000000  13 t-inv T


--------------------------------------------------------------------------------------------------------




 Dimension of arrays:
   k-points           NKPTS =     13   k-points in BZ     NKDIM =     13   number of bands    NBANDS=    112
   number of dos      NEDOS =    301   number of ions     NIONS =     19
   non local maximal  LDIM  =      6   non local SUM 2l+1 LMDIM =     18
   total plane-waves  NPLWV =  62720
   max r-space proj   IRMAX =   1486   max aug-charges    IRDMAX=   2657
   dimension x,y,z NGX =    28 NGY =   28 NGZ =   80
   dimension x,y,z NGXF=    42 NGYF=   42 NGZF=  128
   support grid    NGXF=    42 NGYF=   42 NGZF=  128
   ions per type =              16   1   1   1
 NGX,Y,Z   is equivalent  to a cutoff of   9.11,  9.11,  8.62 a.u.
 NGXF,Y,Z  is equivalent  to a cutoff of  13.66, 13.66, 13.80 a.u.


 I would recommend the setting:
   dimension x,y,z NGX =    25 NGY =   25 NGZ =   75
 SYSTEM =  name                                    
 POSCAR =  Cu   C    O    H                        

 Startparameter for this run:
   NWRITE =      2    write-flag & timer
   PREC   = medium    normal or accurate (medium, high low for compatibility)
   ISTART =      0    job   : 0-new  1-cont  2-samecut
   ICHARG =      2    charge: 1-file 2-atom 10-const
   ISPIN  =      1    spin polarized calculation?
   LNONCOLLINEAR =      F non collinear calculations
   LSORBIT =      F    spin-orbit coupling
   INIWAV =      1    electr: 0-lowe 1-rand  2-diag
   LASPH  =      F    aspherical Exc in radial PAW
   METAGGA=      F    non-selfconsistent MetaGGA calc.

 Electronic Relaxation 1
   ENCUT  =  400.0 eV  29.40 Ry    5.42 a.u.   8.34  8.34 25.15*2*pi/ulx,y,z
   ENINI  =  400.0     initial cutoff
   ENAUG  =  644.9 eV  augmentation charge cutoff
   NELM   =    100;   NELMIN=  4; NELMDL= -5     # of ELM steps 
   EDIFF  = 0.1E-03   stopping-criterion for ELM
   LREAL  =      T    real-space projection
   NLSPLINE    = F    spline interpolate recip. space projectors
   LCOMPAT=      F    compatible to vasp.4.4
   GGA_COMPAT  = T    GGA compatible to vasp.4.4-vasp.4.6
   LMAXPAW     = -100 max onsite density
   LMAXMIX     =    2 max onsite mixed and CHGCAR
   VOSKOWN=      0    Vosko Wilk Nusair interpolation
   ROPT   =   -0.00200  -0.00200  -0.00200  -0.00200
 Ionic relaxation
   EDIFFG = -.5E-01   stopping-criterion for IOM
   NSW    =    265    number of steps for IOM
   NBLOCK =      1;   KBLOCK =      1    inner block; outer block 
   IBRION =      5    ionic relax: 0-MD 1-quasi-New 2-CG
   NFREE  =      2    steps in history (QN), initial steepest desc. (CG)
   ISIF   =      2    stress and relaxation
   IWAVPR =     11    prediction:  0-non 1-charg 2-wave 3-comb
   ISYM   =      2    0-nonsym 1-usesym 2-fastsym
   LCORR  =      T    Harris-Foulkes like correction to forces

   POTIM  = 0.0500    time-step for ionic-motion
   TEIN   =    0.0    initial temperature
   TEBEG  =    0.0;   TEEND  =   0.0 temperature during run
   SMASS  =  -3.00    Nose mass-parameter (am)
   estimated Nose-frequenzy (Omega)   =  0.10E-29 period in steps =****** mass=  -0.597E-27a.u.
   SCALEE = 1.0000    scale energy and forces
   NPACO  =    256;   APACO  = 16.0  distance and # of slots for P.C.
   PSTRESS=    0.0 pullay stress

  Mass of Ions in am
   POMASS =  63.55 12.01 16.00  1.00
  Ionic Valenz
   ZVAL   =  11.00  4.00  6.00  1.00
  Atomic Wigner-Seitz radii
   RWIGS  =  -1.00 -1.00 -1.00 -1.00
  virtual crystal weights 
   VCA    =   1.00  1.00  1.00  1.00
   NELECT =     187.0000    total number of electrons
   NUPDOWN=      -1.0000    fix difference up-down

 DOS related values:
   EMIN   =  10.00;   EMAX   =-10.00  energy-range for DOS
   EFERMI =   0.00
   ISMEAR =     1;   SIGMA  =   0.10  broadening in eV -4-tet -1-fermi 0-gaus

 Electronic relaxation 2 (details)
   IALGO  =     38    algorithm
   LDIAG  =      T    sub-space diagonalisation (order eigenvalues)
   LSUBROT=      F    optimize rotation matrix (better conditioning)
   TURBO    =      0    0=normal 1=particle mesh
   IRESTART =      0    0=no restart 2=restart with 2 vectors
   NREBOOT  =      0    no. of reboots
   NMIN     =      0    reboot dimension
   EREF     =   0.00    reference energy to select bands
   IMIX   =      4    mixing-type and parameters
     AMIX     =   0.40;   BMIX     =  1.00
     AMIX_MAG =   1.60;   BMIX_MAG =  1.00
     AMIN     =   0.10
     WC   =   100.;   INIMIX=   1;  MIXPRE=   1;  MAXMIX= -45

 Intra band minimization:
   WEIMIN = 0.0010     energy-eigenvalue tresh-hold
   EBREAK =  0.22E-06  absolut break condition
   DEPER  =   0.30     relativ break condition  

   TIME   =   0.40     timestep for ELM

  volume/ion in A,a.u.               =      21.21       143.14
  Fermi-wavevector in a.u.,A,eV,Ry     =   1.267400  2.395038 21.855069  1.606302
  Thomas-Fermi vector in A             =   2.400550
 
 Write flags
   LWAVE  =      F    write WAVECAR
   LCHARG =      F    write CHGCAR
   LVTOT  =      F    write LOCPOT, total local potential
   LVHAR  =      F    write LOCPOT, Hartree potential only
   LELF   =      F    write electronic localiz. function (ELF)
   LORBIT =      0    0 simple, 1 ext, 2 COOP (PROOUT)


 Dipole corrections
   LMONO  =      F    monopole corrections only (constant potential shift)
   LDIPOL =      F    correct potential (dipole corrections)
   IDIPOL =      0    1-x, 2-y, 3-z, 4-all directions 
   EPSILON=  1.0000000 bulk dielectric constant

 Exchange correlation treatment:
   GGA     =    91    GGA type
   LEXCH   =     7    internal setting for exchange type
   VOSKOWN=      0    Vosko Wilk Nusair interpolation
   LHFCALC =     F    Hartree Fock is set to
   LHFONE  =     F    Hartree Fock one center treatment
   AEXX    =    0.0000 exact exchange contribution

 Linear response parameters
   LEPSILON=     F    determine dielectric tensor
   LRPA    =     F    only Hartree local field effects (RPA)
   LNABLA  =     F    use nabla operator in PAW spheres
   LVEL    =     F    velocity operator in full k-point grid
   LINTERFAST=   F  fast interpolation
   KINTER  =     0    interpolate to denser k-point grid
   CSHIFT  =0.1000    complex shift for real part using Kramers Kronig
   OMEGAMAX=  -1.0    maximum frequency
   DEG_THRESHOLD= 0.2000000E-02 threshold for treating states as degnerate
   RTIME   =    0.100 relaxation time in fs

 Orbital magnetization related:
   ORBITALMAG=     F  switch on orbital magnetization
   LCHIMAG   =     F  perturbation theory with respect to B field
   DQ        =  0.001000  dq finite difference perturbation B field



--------------------------------------------------------------------------------------------------------


 finite differences
   using selective dynamics as specified on POSCAR
 charge density and potential will be updated during run
 non-spin polarized calculation
 Variant of blocked Davidson
 Davidson routine will perform the subspace rotation
 perform sub-space diagonalisation
    after iterative eigenvector-optimisation
 modified Broyden-mixing scheme, WC =      100.0
 initial mixing is a Kerker type mixing with AMIX =  0.4000 and BMIX =      1.0000
 Hartree-type preconditioning will be used
 using additional bands           18
 real space projection scheme for non local part
 use partial core corrections
 calculate Harris-corrections to forces 
   (improved forces if not selfconsistent)
 use gradient corrections 
 use of overlap-Matrix (Vanderbilt PP)
 Methfessel and Paxton  Order N= 1 SIGMA  =   0.10


--------------------------------------------------------------------------------------------------------


  energy-cutoff  :      400.00
  volume of cell :      403.02
      direct lattice vectors                 reciprocal lattice vectors
     5.111999989  0.000000000  0.000000000     0.195618154  0.000000339  0.000000339
    -0.000008849  5.111999989  0.000000000     0.000000000  0.195618154  0.000000339
    -0.000026697 -0.000026697 15.422100067     0.000000000  0.000000000  0.064842012

  length of vectors
     5.111999989  5.111999989 15.422100067     0.195618154  0.195618154  0.064842012


 
 k-points in units of 2pi/SCALE and weight: auto                                    
   0.00000000  0.00000000  0.00000000       0.040
   0.03912363  0.00000007  0.00000007       0.080
   0.07824726  0.00000014  0.00000014       0.080
   0.00000000  0.03912363  0.00000007       0.080
   0.03912363  0.03912370  0.00000014       0.080
   0.07824726  0.03912377  0.00000020       0.080
  -0.07824726  0.03912350 -0.00000007       0.080
  -0.03912363  0.03912356 -0.00000000       0.080
   0.00000000  0.07824726  0.00000014       0.080
   0.03912363  0.07824733  0.00000020       0.080
   0.07824726  0.07824740  0.00000027       0.080
  -0.07824726  0.07824713 -0.00000000       0.080
  -0.03912363  0.07824719  0.00000007       0.080
 
 k-points in reciprocal lattice and weights: auto                                    
   0.00000000  0.00000000  0.00000000       0.040
   0.20000000 -0.00000000 -0.00000000       0.080
   0.40000000 -0.00000000 -0.00000000       0.080
   0.00000000  0.20000000  0.00000000       0.080
   0.20000000  0.20000000  0.00000000       0.080
   0.40000000  0.20000000  0.00000000       0.080
  -0.40000000  0.20000000  0.00000000       0.080
  -0.20000000  0.20000000  0.00000000       0.080
   0.00000000  0.40000000  0.00000000       0.080
   0.20000000  0.40000000 -0.00000000       0.080
   0.40000000  0.40000000  0.00000000       0.080
  -0.40000000  0.40000000  0.00000000       0.080
  -0.20000000  0.40000000 -0.00000000       0.080
 
 position of ions in fractional coordinates (direct lattice) 
   0.00003000  0.00133000  0.17979001
   0.00019566  0.00018417  0.41002953
   0.25000000  0.25000000  0.06484000
   0.25572523  0.24773372  0.30066219
   0.50001001  0.00042000  0.17930999
   0.49812872  0.97985261  0.41954771
   0.75000000  0.25000000  0.06484000
   0.74198989  0.24607939  0.30058263
   0.00002000  0.49998000  0.18091001
   0.99750515  0.49980418  0.41004171
   0.25000000  0.75000000  0.06484000
   0.25043412  0.74836994  0.29680539
   0.50002003  0.50080001  0.17982000
   0.50195093  0.49834018  0.41869982
   0.75000000  0.75000000  0.06484000
   0.74888595  0.74829426  0.29654342
   0.49808517  0.71442242  0.52794299
   0.54284162  0.88143440  0.58256309
   0.43550592  0.51078137  0.55196682
 
 position of ions in cartesian coordinates  (Angst):
   0.00014855  0.00679416  2.77273945
   0.00098925  0.00093055  6.32351643
   1.27799605  1.27799827  0.99996891
   1.30725713  1.26640675  4.63684242
   2.55604640  0.00214225  2.76533667
   2.54641413  5.00899531  6.47030672
   3.83399605  1.27799827  0.99996891
   3.79304213  1.25794983  4.63561547
   0.00009299  2.55589294  2.79001222
   5.09923093  2.55498800  6.32370426
   1.27799163  3.83399826  0.99996891
   1.28020469  3.82565918  4.57736244
   2.55609314  2.56008487  2.77320205
   2.56595758  2.54750384  6.45723057
   3.83399162  3.83399826  0.99996891
   3.82829042  3.82527233  4.57332234
   2.54619099  3.65211333  8.14198955
   2.77498303  4.50587710  8.98434631
   2.22628699  2.61109961  8.51248750
 


--------------------------------------------------------------------------------------------------------


 k-point  1 :   0.0000 0.0000 0.0000  plane waves:    7367
 k-point  2 :   0.2000-0.0000-0.0000  plane waves:    7331
 k-point  3 :   0.4000-0.0000-0.0000  plane waves:    7312
 k-point  4 :   0.0000 0.2000 0.0000  plane waves:    7331
 k-point  5 :   0.2000 0.2000 0.0000  plane waves:    7324
 k-point  6 :   0.4000 0.2000 0.0000  plane waves:    7316
 k-point  7 :  -0.4000 0.2000 0.0000  plane waves:    7316
 k-point  8 :  -0.2000 0.2000 0.0000  plane waves:    7324
 k-point  9 :   0.0000 0.4000 0.0000  plane waves:    7312
 k-point 10 :   0.2000 0.4000-0.0000  plane waves:    7316
 k-point 11 :   0.4000 0.4000 0.0000  plane waves:    7312
 k-point 12 :  -0.4000 0.4000 0.0000  plane waves:    7312
 k-point 13 :  -0.2000 0.4000-0.0000  plane waves:    7316

 maximum and minimum number of plane-waves per node :      7367     7312

 maximum number of plane-waves:      7367
 maximum index in each direction: 
   IXMAX=    8   IYMAX=    8   IZMAX=   25
   IXMIN=   -8   IYMIN=   -8   IZMIN=  -25

 WARNING: aliasing errors must be expected set NGX to  34 to avoid them
 WARNING: aliasing errors must be expected set NGY to  34 to avoid them
 WARNING: aliasing errors must be expected set NGZ to 102 to avoid them
 aliasing errors are usually negligible using standard VASP settings
 and one can safely disregard these warnings

 serial   3D FFT for wavefunctions
 parallel 3D FFT for charge:
    minimum data exchange during FFTs selected (reduces bandwidth)


 total amount of memory used by VASP on root node    50122. kBytes
========================================================================

   base      :      30000. kBytes
   nonlr-proj:       4113. kBytes
   fftplans  :        813. kBytes
   grid      :       3696. kBytes
   one-center:        295. kBytes
   wavefun   :      11205. kBytes
 
     INWAV:  cpu time    0.0010: real time    0.0004
 Broyden mixing: mesh for mixing (old mesh)
   NGX = 17   NGY = 17   NGZ = 51
  (NGX  = 42   NGY  = 42   NGZ  =128)
  gives a total of  14739 points

 initial charge density was supplied:
 charge density of overlapping atoms calculated
 number of electron     187.0000000 magnetization 
 keeping initial charge density in first step


--------------------------------------------------------------------------------------------------------


 Maximum index for non-local projection operator         1393
 Maximum index for augmentation-charges          219 (set IRDMAX)


--------------------------------------------------------------------------------------------------------


 First call to EWALD:  gamma=   0.240
 Maximum number of real-space cells 4x 4x 2
 Maximum number of reciprocal cells 2x 2x 5

 FEWALD executed in parallel
    FEWALD:  cpu time    0.0040: real time    0.0063


----------------------------------------- Iteration    1(   1)  ---------------------------------------


    POTLOK:  cpu time    0.0170: real time    0.0243
    SETDIJ:  cpu time    0.0070: real time    0.0159
     EDDAV:  cpu time    3.9034: real time    3.9181
       DOS:  cpu time    0.0020: real time    0.0069
    --------------------------------------------
      LOOP:  cpu time    3.9324: real time    3.9724

 eigenvalue-minimisations  :  2912
 total energy-change (2. order) : 0.1334658E+04  (-0.7431460E+04)
 number of electron     187.0000000 magnetization 
 augmentation part      187.0000000 magnetization 

 Free energy of the ion-electron system (eV)
  ---------------------------------------------------
  alpha Z        PSCENC =       879.64192429
  Ewald energy   TEWEN  =     20512.56703569
  -Hartree energ DENC   =    -42302.50782331
  -exchange      EXHF   =         0.00000000
  -V(xc)+E(xc)   XCENC  =       739.08675662
  PAW double counting   =     17612.13069532   -19928.08646944
  entropy T*S    EENTRO =         0.00369450
  eigenvalues    EBANDS =       940.00467194
  atomic energy  EATOM  =     22881.81795645
  Solvation  Ediel_sol  =         0.00000000
  ---------------------------------------------------
  free energy    TOTEN  =      1334.65844206 eV

  energy without entropy =     1334.65474756  energy(sigma->0) =     1334.65721056


--------------------------------------------------------------------------------------------------------




----------------------------------------- Iteration    1(   2)  ---------------------------------------


     EDDAV:  cpu time    3.8524: real time    3.8529
       DOS:  cpu time    0.0000: real time    0.0006
    --------------------------------------------
      LOOP:  cpu time    3.8544: real time    3.8614

 eigenvalue-minimisations  :  2912
 total energy-change (2. order) :-0.1271402E+04  (-0.1218719E+04)
 number of electron     187.0000000 magnetization 
 augmentation part      187.0000000 magnetization 

 Free energy of the ion-electron system (eV)
  ---------------------------------------------------
  alpha Z        PSCENC =       879.64192429
  Ewald energy   TEWEN  =     20512.56703569
  -Hartree energ DENC   =    -42302.50782331
  -exchange      EXHF   =         0.00000000
  -V(xc)+E(xc)   XCENC  =       739.08675662
  PAW double counting   =     17612.13069532   -19928.08646944
  entropy T*S    EENTRO =         0.00353609
  eigenvalues    EBANDS =      -331.39706543
  atomic energy  EATOM  =     22881.81795645
  Solvation  Ediel_sol  =         0.00000000
  ---------------------------------------------------
  free energy    TOTEN  =        63.25654628 eV

  energy without entropy =       63.25301019  energy(sigma->0) =       63.25536758


--------------------------------------------------------------------------------------------------------




----------------------------------------- Iteration    1(   3)  ---------------------------------------


     EDDAV:  cpu time    4.5903: real time    4.5927
       DOS:  cpu time    0.0010: real time    0.0006
    --------------------------------------------
      LOOP:  cpu time    4.5943: real time    4.6001

 eigenvalue-minimisations  :  3568
 total energy-change (2. order) :-0.1449751E+03  (-0.1373357E+03)
 number of electron     187.0000000 magnetization 
 augmentation part      187.0000000 magnetization 

 Free energy of the ion-electron system (eV)
  ---------------------------------------------------
  alpha Z        PSCENC =       879.64192429
  Ewald energy   TEWEN  =     20512.56703569
  -Hartree energ DENC   =    -42302.50782331
  -exchange      EXHF   =         0.00000000
  -V(xc)+E(xc)   XCENC  =       739.08675662
  PAW double counting   =     17612.13069532   -19928.08646944
  entropy T*S    EENTRO =         0.00330584
  eigenvalues    EBANDS =      -476.37190572
  atomic energy  EATOM  =     22881.81795645
  Solvation  Ediel_sol  =         0.00000000
  ---------------------------------------------------
  free energy    TOTEN  =       -81.71852425 eV

  energy without entropy =      -81.72183010  energy(sigma->0) =      -81.71962620


--------------------------------------------------------------------------------------------------------




----------------------------------------- Iteration    1(   4)  ---------------------------------------


     EDDAV:  cpu time    3.9354: real time    3.9396
       DOS:  cpu time    0.0010: real time    0.0006
    --------------------------------------------
      LOOP:  cpu time    3.9394: real time    3.9471

 eigenvalue-minimisations  :  2976
 total energy-change (2. order) :-0.6633452E+01  (-0.6530781E+01)
 number of electron     187.0000000 magnetization 
 augmentation part      187.0000000 magnetization 

 Free energy of the ion-electron system (eV)
  ---------------------------------------------------
  alpha Z        PSCENC =       879.64192429
  Ewald energy   TEWEN  =     20512.56703569
  -Hartree energ DENC   =    -42302.50782331
  -exchange      EXHF   =         0.00000000
  -V(xc)+E(xc)   XCENC  =       739.08675662
  PAW double counting   =     17612.13069532   -19928.08646944
  entropy T*S    EENTRO =         0.00965932
  eigenvalues    EBANDS =      -483.01171134
  atomic energy  EATOM  =     22881.81795645
  Solvation  Ediel_sol  =         0.00000000
  ---------------------------------------------------
  free energy    TOTEN  =       -88.35197640 eV

  energy without entropy =      -88.36163572  energy(sigma->0) =      -88.35519617


--------------------------------------------------------------------------------------------------------




----------------------------------------- Iteration    1(   5)  ---------------------------------------


     EDDAV:  cpu time    4.6023: real time    4.6055
       DOS:  cpu time    0.0010: real time    0.0006
    CHARGE:  cpu time    0.1280: real time    0.1515
    MIXING:  cpu time    0.0030: real time    0.0090
    --------------------------------------------
      LOOP:  cpu time    4.7373: real time    4.7735

 eigenvalue-minimisations  :  3600
 total energy-change (2. order) :-0.1296897E+00  (-0.1295376E+00)
 number of electron     186.9999458 magnetization 
 augmentation part      108.2217930 magnetization 

 Broyden mixing:
  rms(total) = 0.29353E+01    rms(broyden)= 0.29349E+01
  rms(prec ) = 0.33922E+01
  weight for this iteration     100.00

 Free energy of the ion-electron system (eV)
  ---------------------------------------------------
  alpha Z        PSCENC =       879.64192429
  Ewald energy   TEWEN  =     20512.56703569
  -Hartree energ DENC   =    -42302.50782331
  -exchange      EXHF   =         0.00000000
  -V(xc)+E(xc)   XCENC  =       739.08675662
  PAW double counting   =     17612.13069532   -19928.08646944
  entropy T*S    EENTRO =         0.00965941
  eigenvalues    EBANDS =      -483.14140110
  atomic energy  EATOM  =     22881.81795645
  Solvation  Ediel_sol  =         0.00000000
  ---------------------------------------------------
  free energy    TOTEN  =       -88.48166607 eV

  energy without entropy =      -88.49132548  energy(sigma->0) =      -88.48488587


--------------------------------------------------------------------------------------------------------




----------------------------------------- Iteration    1(   6)  ---------------------------------------


    POTLOK:  cpu time    0.0120: real time    0.0135
    SETDIJ:  cpu time    0.0040: real time    0.0041
     EDDAV:  cpu time    4.7043: real time    4.7062
       DOS:  cpu time    0.0010: real time    0.0007
    CHARGE:  cpu time    0.1160: real time    0.1153
    MIXING:  cpu time    0.0020: real time    0.0030
    --------------------------------------------
      LOOP:  cpu time    4.8433: real time    4.8497

 eigenvalue-minimisations  :  3664
 total energy-change (2. order) : 0.3450195E+01  (-0.1874484E+02)
 number of electron     186.9999539 magnetization 
 augmentation part      120.8475247 magnetization 

 Broyden mixing:
  rms(total) = 0.19569E+01    rms(broyden)= 0.19554E+01
  rms(prec ) = 0.25117E+01
  weight for this iteration     100.00

 eigenvalues of (default mixing * dielectric matrix)
  average eigenvalue GAMMA=   0.6083
  0.6083

 Free energy of the ion-electron system (eV)
  ---------------------------------------------------
  alpha Z        PSCENC =       879.64192429
  Ewald energy   TEWEN  =     20512.56703569
  -Hartree energ DENC   =    -41858.21831919
  -exchange      EXHF   =         0.00000000
  -V(xc)+E(xc)   XCENC  =       721.10826568
  PAW double counting   =     17215.94763275   -19399.08585396
  entropy T*S    EENTRO =        -0.00037873
  eigenvalues    EBANDS =     -1038.80973447
  atomic energy  EATOM  =     22881.81795645
  Solvation  Ediel_sol  =         0.00000000
  ---------------------------------------------------
  free energy    TOTEN  =       -85.03147150 eV

  energy without entropy =      -85.03109276  energy(sigma->0) =      -85.03134525


--------------------------------------------------------------------------------------------------------




----------------------------------------- Iteration    1(   7)  ---------------------------------------


    POTLOK:  cpu time    0.0140: real time    0.0140
    SETDIJ:  cpu time    0.0040: real time    0.0041
     EDDAV:  cpu time    5.4022: real time    5.4040
       DOS:  cpu time    0.0010: real time    0.0007
    CHARGE:  cpu time    0.1090: real time    0.1090
    MIXING:  cpu time    0.0010: real time    0.0007
    --------------------------------------------
      LOOP:  cpu time    5.5332: real time    5.5394

 eigenvalue-minimisations  :  4304
 total energy-change (2. order) : 0.1146863E+02  (-0.4068648E+01)
 number of electron     186.9999482 magnetization 
 augmentation part      117.1995832 magnetization 

 Broyden mixing:
  rms(total) = 0.60306E+00    rms(broyden)= 0.60112E+00
  rms(prec ) = 0.72752E+00
  weight for this iteration     100.00

 eigenvalues of (default mixing * dielectric matrix)
  average eigenvalue GAMMA=   0.5510
  0.6129  0.4891

 Free energy of the ion-electron system (eV)
  ---------------------------------------------------
  alpha Z        PSCENC =       879.64192429
  Ewald energy   TEWEN  =     20512.56703569
  -Hartree energ DENC   =    -42058.57017364
  -exchange      EXHF   =         0.00000000
  -V(xc)+E(xc)   XCENC  =       725.83053156
  PAW double counting   =     17548.35468938   -19823.27958348
  entropy T*S    EENTRO =        -0.00333380
  eigenvalues    EBANDS =      -739.92188939
  atomic energy  EATOM  =     22881.81795645
  Solvation  Ediel_sol  =         0.00000000
  ---------------------------------------------------
  free energy    TOTEN  =       -73.56284295 eV

  energy without entropy =      -73.55950915  energy(sigma->0) =      -73.56173168


--------------------------------------------------------------------------------------------------------




----------------------------------------- Iteration    1(   8)  ---------------------------------------


    POTLOK:  cpu time    0.0140: real time    0.0140
    SETDIJ:  cpu time    0.0040: real time    0.0042
     EDDAV:  cpu time    4.6843: real time    4.6862
       DOS:  cpu time    0.0010: real time    0.0007
    CHARGE:  cpu time    0.1060: real time    0.1056
    MIXING:  cpu time    0.0010: real time    0.0007
    --------------------------------------------
      LOOP:  cpu time    4.8133: real time    4.8186

 eigenvalue-minimisations  :  3648
 total energy-change (2. order) : 0.9071887E-01  (-0.1191642E+01)
 number of electron     186.9999497 magnetization 
 augmentation part      116.1817386 magnetization 

 Broyden mixing:
  rms(total) = 0.37194E+00    rms(broyden)= 0.37175E+00
  rms(prec ) = 0.44976E+00
  weight for this iteration     100.00

 eigenvalues of (default mixing * dielectric matrix)
  average eigenvalue GAMMA=   0.5866
  0.7537  0.5031  0.5031

 Free energy of the ion-electron system (eV)
  ---------------------------------------------------
  alpha Z        PSCENC =       879.64192429
  Ewald energy   TEWEN  =     20512.56703569
  -Hartree energ DENC   =    -42079.32568042
  -exchange      EXHF   =         0.00000000
  -V(xc)+E(xc)   XCENC  =       726.77579808
  PAW double counting   =     17665.26954769   -19964.13897002
  entropy T*S    EENTRO =         0.00036926
  eigenvalues    EBANDS =      -696.08010510
  atomic energy  EATOM  =     22881.81795645
  Solvation  Ediel_sol  =         0.00000000
  ---------------------------------------------------
  free energy    TOTEN  =       -73.47212408 eV

  energy without entropy =      -73.47249335  energy(sigma->0) =      -73.47224717


--------------------------------------------------------------------------------------------------------




----------------------------------------- Iteration    1(   9)  ---------------------------------------


    POTLOK:  cpu time    0.0140: real time    0.0141
    SETDIJ:  cpu time    0.0050: real time    0.0042
     EDDAV:  cpu time    5.0032: real time    5.0048
       DOS:  cpu time    0.0000: real time    0.0007
    CHARGE:  cpu time    0.1210: real time    0.1216
    MIXING:  cpu time    0.0010: real time    0.0007
    --------------------------------------------
      LOOP:  cpu time    5.1472: real time    5.1533

 eigenvalue-minimisations  :  3952
 total energy-change (2. order) : 0.1863221E-01  (-0.3165636E+00)
 number of electron     186.9999501 magnetization 
 augmentation part      115.7489271 magnetization 

 Broyden mixing:
  rms(total) = 0.27657E+00    rms(broyden)= 0.27652E+00
  rms(prec ) = 0.33708E+00
  weight for this iteration     100.00

 eigenvalues of (default mixing * dielectric matrix)
  average eigenvalue GAMMA=   0.7817
  1.6134  0.5752  0.5752  0.3629

 Free energy of the ion-electron system (eV)
  ---------------------------------------------------
  alpha Z        PSCENC =       879.64192429
  Ewald energy   TEWEN  =     20512.56703569
  -Hartree energ DENC   =    -42086.16058283
  -exchange      EXHF   =         0.00000000
  -V(xc)+E(xc)   XCENC  =       726.64165690
  PAW double counting   =     17737.75474617   -20048.22986462
  entropy T*S    EENTRO =        -0.00162674
  eigenvalues    EBANDS =      -677.48473720
  atomic energy  EATOM  =     22881.81795645
  Solvation  Ediel_sol  =         0.00000000
  ---------------------------------------------------
  free energy    TOTEN  =       -73.45349187 eV

  energy without entropy =      -73.45186514  energy(sigma->0) =      -73.45294963


--------------------------------------------------------------------------------------------------------




----------------------------------------- Iteration    1(  10)  ---------------------------------------


    POTLOK:  cpu time    0.0130: real time    0.0141
    SETDIJ:  cpu time    0.0050: real time    0.0042
     EDDAV:  cpu time    4.5393: real time    4.5425
       DOS:  cpu time    0.0020: real time    0.0006
    CHARGE:  cpu time    0.1100: real time    0.1106
    MIXING:  cpu time    0.0010: real time    0.0008
    --------------------------------------------
      LOOP:  cpu time    4.6733: real time    4.6798

 eigenvalue-minimisations  :  3536
 total energy-change (2. order) : 0.7412086E-01  (-0.8690568E-01)
 number of electron     186.9999493 magnetization 
 augmentation part      115.7819791 magnetization 

 Broyden mixing:
  rms(total) = 0.17669E+00    rms(broyden)= 0.17666E+00
  rms(prec ) = 0.21718E+00
  weight for this iteration     100.00

 eigenvalues of (default mixing * dielectric matrix)
  average eigenvalue GAMMA=   0.8468
  2.0885  0.6284  0.6284  0.5601  0.3285

 Free energy of the ion-electron system (eV)
  ---------------------------------------------------
  alpha Z        PSCENC =       879.64192429
  Ewald energy   TEWEN  =     20512.56703569
  -Hartree energ DENC   =    -42080.36777516
  -exchange      EXHF   =         0.00000000
  -V(xc)+E(xc)   XCENC  =       725.71084297
  PAW double counting   =     17829.75432944   -20152.03270357
  entropy T*S    EENTRO =        -0.00233266
  eigenvalues    EBANDS =      -670.46864846
  atomic energy  EATOM  =     22881.81795645
  Solvation  Ediel_sol  =         0.00000000
  ---------------------------------------------------
  free energy    TOTEN  =       -73.37937101 eV

  energy without entropy =      -73.37703835  energy(sigma->0) =      -73.37859346


--------------------------------------------------------------------------------------------------------




----------------------------------------- Iteration    1(  11)  ---------------------------------------


    POTLOK:  cpu time    0.0140: real time    0.0142
    SETDIJ:  cpu time    0.0040: real time    0.0042
     EDDAV:  cpu time    4.3733: real time    4.3743
       DOS:  cpu time    0.0000: real time    0.0007
    CHARGE:  cpu time    0.1240: real time    0.1238
    MIXING:  cpu time    0.0010: real time    0.0008
    --------------------------------------------
      LOOP:  cpu time    4.5193: real time    4.5252

 eigenvalue-minimisations  :  3344
 total energy-change (2. order) : 0.2841322E-01  (-0.3913724E-01)
 number of electron     186.9999507 magnetization 
 augmentation part      115.8990868 magnetization 

 Broyden mixing:
  rms(total) = 0.10902E+00    rms(broyden)= 0.10901E+00
  rms(prec ) = 0.13517E+00
  weight for this iteration     100.00

 eigenvalues of (default mixing * dielectric matrix)
  average eigenvalue GAMMA=   0.8844
  2.1671  1.1276  0.6325  0.6325  0.4317  0.3151

 Free energy of the ion-electron system (eV)
  ---------------------------------------------------
  alpha Z        PSCENC =       879.64192429
  Ewald energy   TEWEN  =     20512.56703569
  -Hartree energ DENC   =    -42074.13591791
  -exchange      EXHF   =         0.00000000
  -V(xc)+E(xc)   XCENC  =       725.22156764
  PAW double counting   =     17864.16871987   -20189.69600740
  entropy T*S    EENTRO =        -0.00231955
  eigenvalues    EBANDS =      -672.93391687
  atomic energy  EATOM  =     22881.81795645
  Solvation  Ediel_sol  =         0.00000000
  ---------------------------------------------------
  free energy    TOTEN  =       -73.35095780 eV

  energy without entropy =      -73.34863825  energy(sigma->0) =      -73.35018461


--------------------------------------------------------------------------------------------------------




----------------------------------------- Iteration    1(  12)  ---------------------------------------


    POTLOK:  cpu time    0.0140: real time    0.0142
    SETDIJ:  cpu time    0.0040: real time    0.0042
     EDDAV:  cpu time    4.4823: real time    4.4839
       DOS:  cpu time    0.0000: real time    0.0007
    CHARGE:  cpu time    0.1210: real time    0.1213
    MIXING:  cpu time    0.0010: real time    0.0009
    --------------------------------------------
      LOOP:  cpu time    4.6263: real time    4.6326

 eigenvalue-minimisations  :  3472
 total energy-change (2. order) : 0.1817630E-01  (-0.1622519E-01)
 number of electron     186.9999498 magnetization 
 augmentation part      116.0611778 magnetization 

 Broyden mixing:
  rms(total) = 0.30612E-01    rms(broyden)= 0.30573E-01
  rms(prec ) = 0.39322E-01
  weight for this iteration     100.00

 eigenvalues of (default mixing * dielectric matrix)
  average eigenvalue GAMMA=   0.8715
  2.2499  1.2033  0.6321  0.6321  0.6449  0.4250  0.3133

 Free energy of the ion-electron system (eV)
  ---------------------------------------------------
  alpha Z        PSCENC =       879.64192429
  Ewald energy   TEWEN  =     20512.56703569
  -Hartree energ DENC   =    -42070.79103204
  -exchange      EXHF   =         0.00000000
  -V(xc)+E(xc)   XCENC  =       724.85416082
  PAW double counting   =     17884.45879175   -20210.56039400
  entropy T*S    EENTRO =        -0.00323214
  eigenvalues    EBANDS =      -675.31799233
  atomic energy  EATOM  =     22881.81795645
  Solvation  Ediel_sol  =         0.00000000
  ---------------------------------------------------
  free energy    TOTEN  =       -73.33278149 eV

  energy without entropy =      -73.32954936  energy(sigma->0) =      -73.33170411


--------------------------------------------------------------------------------------------------------




----------------------------------------- Iteration    1(  13)  ---------------------------------------


    POTLOK:  cpu time    0.0140: real time    0.0142
    SETDIJ:  cpu time    0.0040: real time    0.0041
     EDDAV:  cpu time    4.4063: real time    4.4091
       DOS:  cpu time    0.0010: real time    0.0007
    CHARGE:  cpu time    0.1290: real time    0.1305
    MIXING:  cpu time    0.0040: real time    0.0031
    --------------------------------------------
      LOOP:  cpu time    4.5613: real time    4.5691

 eigenvalue-minimisations  :  3392
 total energy-change (2. order) :-0.7413488E-03  (-0.4450772E-02)
 number of electron     186.9999500 magnetization 
 augmentation part      116.1025492 magnetization 

 Broyden mixing:
  rms(total) = 0.23309E-01    rms(broyden)= 0.23304E-01
  rms(prec ) = 0.30614E-01
  weight for this iteration     100.00

 eigenvalues of (default mixing * dielectric matrix)
  average eigenvalue GAMMA=   0.8690
  2.2612  1.4006  0.7168  0.7168  0.6516  0.3126  0.4247  0.4674

 Free energy of the ion-electron system (eV)
  ---------------------------------------------------
  alpha Z        PSCENC =       879.64192429
  Ewald energy   TEWEN  =     20512.56703569
  -Hartree energ DENC   =    -42072.34526618
  -exchange      EXHF   =         0.00000000
  -V(xc)+E(xc)   XCENC  =       724.81215122
  PAW double counting   =     17894.66153872   -20221.30588605
  entropy T*S    EENTRO =        -0.00319690
  eigenvalues    EBANDS =      -673.17978008
  atomic energy  EATOM  =     22881.81795645
  Solvation  Ediel_sol  =         0.00000000
  ---------------------------------------------------
  free energy    TOTEN  =       -73.33352284 eV

  energy without entropy =      -73.33032595  energy(sigma->0) =      -73.33245721


--------------------------------------------------------------------------------------------------------




----------------------------------------- Iteration    1(  14)  ---------------------------------------


    POTLOK:  cpu time    0.0140: real time    0.0142
    SETDIJ:  cpu time    0.0040: real time    0.0042
     EDDAV:  cpu time    4.6693: real time    4.6704
       DOS:  cpu time    0.0010: real time    0.0007
    CHARGE:  cpu time    0.1190: real time    0.1192
    MIXING:  cpu time    0.0010: real time    0.0010
    --------------------------------------------
      LOOP:  cpu time    4.8123: real time    4.8168

 eigenvalue-minimisations  :  3648
 total energy-change (2. order) : 0.1409211E-02  (-0.1143604E-02)
 number of electron     186.9999499 magnetization 
 augmentation part      116.0960487 magnetization 

 Broyden mixing:
  rms(total) = 0.14487E-01    rms(broyden)= 0.14481E-01
  rms(prec ) = 0.20582E-01
  weight for this iteration     100.00

 eigenvalues of (default mixing * dielectric matrix)
  average eigenvalue GAMMA=   0.9396
  2.1795  2.0478  0.9096  0.9096  0.6255  0.6255  0.3131  0.4414  0.4042

 Free energy of the ion-electron system (eV)
  ---------------------------------------------------
  alpha Z        PSCENC =       879.64192429
  Ewald energy   TEWEN  =     20512.56703569
  -Hartree energ DENC   =    -42075.06723198
  -exchange      EXHF   =         0.00000000
  -V(xc)+E(xc)   XCENC  =       724.84679780
  PAW double counting   =     17900.54320220   -20227.60819241
  entropy T*S    EENTRO =        -0.00311760
  eigenvalues    EBANDS =      -670.07048807
  atomic energy  EATOM  =     22881.81795645
  Solvation  Ediel_sol  =         0.00000000
  ---------------------------------------------------
  free energy    TOTEN  =       -73.33211363 eV

  energy without entropy =      -73.32899604  energy(sigma->0) =      -73.33107443


--------------------------------------------------------------------------------------------------------




----------------------------------------- Iteration    1(  15)  ---------------------------------------


    POTLOK:  cpu time    0.0130: real time    0.0142
    SETDIJ:  cpu time    0.0050: real time    0.0042
     EDDAV:  cpu time    4.3633: real time    4.3663
       DOS:  cpu time    0.0010: real time    0.0007
    CHARGE:  cpu time    0.1380: real time    0.1383
    MIXING:  cpu time    0.0020: real time    0.0011
    --------------------------------------------
      LOOP:  cpu time    4.5263: real time    4.5322

 eigenvalue-minimisations  :  3360
 total energy-change (2. order) : 0.1404403E-02  (-0.6455095E-03)
 number of electron     186.9999500 magnetization 
 augmentation part      116.0367233 magnetization 

 Broyden mixing:
  rms(total) = 0.11510E-01    rms(broyden)= 0.11507E-01
  rms(prec ) = 0.14452E-01
  weight for this iteration     100.00

 eigenvalues of (default mixing * dielectric matrix)
  average eigenvalue GAMMA=   0.9442
  2.3172  2.3172  0.8790  0.8790  0.6454  0.6454  0.6047  0.3130  0.4045  0.4369

 Free energy of the ion-electron system (eV)
  ---------------------------------------------------
  alpha Z        PSCENC =       879.64192429
  Ewald energy   TEWEN  =     20512.56703569
  -Hartree energ DENC   =    -42080.89865617
  -exchange      EXHF   =         0.00000000
  -V(xc)+E(xc)   XCENC  =       724.96469902
  PAW double counting   =     17907.12969742   -20234.93008350
  entropy T*S    EENTRO =        -0.00320850
  eigenvalues    EBANDS =      -663.62007393
  atomic energy  EATOM  =     22881.81795645
  Solvation  Ediel_sol  =         0.00000000
  ---------------------------------------------------
  free energy    TOTEN  =       -73.33070923 eV

  energy without entropy =      -73.32750072  energy(sigma->0) =      -73.32963973


--------------------------------------------------------------------------------------------------------




----------------------------------------- Iteration    1(  16)  ---------------------------------------


    POTLOK:  cpu time    0.0140: real time    0.0142
    SETDIJ:  cpu time    0.0040: real time    0.0042
     EDDAV:  cpu time    4.2274: real time    4.2295
       DOS:  cpu time    0.0010: real time    0.0007
    CHARGE:  cpu time    0.1220: real time    0.1218
    MIXING:  cpu time    0.0020: real time    0.0011
    --------------------------------------------
      LOOP:  cpu time    4.3733: real time    4.3788

 eigenvalue-minimisations  :  3232
 total energy-change (2. order) :-0.1645511E-04  (-0.1537978E-03)
 number of electron     186.9999499 magnetization 
 augmentation part      116.0357275 magnetization 

 Broyden mixing:
  rms(total) = 0.91368E-02    rms(broyden)= 0.91361E-02
  rms(prec ) = 0.11377E-01
  weight for this iteration     100.00

 eigenvalues of (default mixing * dielectric matrix)
  average eigenvalue GAMMA=   0.9573
  2.6224  2.1697  1.1396  0.8919  0.8919  0.6154  0.6154  0.3131  0.4506  0.4306
  0.3895

 Free energy of the ion-electron system (eV)
  ---------------------------------------------------
  alpha Z        PSCENC =       879.64192429
  Ewald energy   TEWEN  =     20512.56703569
  -Hartree energ DENC   =    -42082.20614461
  -exchange      EXHF   =         0.00000000
  -V(xc)+E(xc)   XCENC  =       724.96219801
  PAW double counting   =     17907.59881616   -20235.36500484
  entropy T*S    EENTRO =        -0.00320404
  eigenvalues    EBANDS =      -662.34430280
  atomic energy  EATOM  =     22881.81795645
  Solvation  Ediel_sol  =         0.00000000
  ---------------------------------------------------
  free energy    TOTEN  =       -73.33072568 eV

  energy without entropy =      -73.32752165  energy(sigma->0) =      -73.32965767


--------------------------------------------------------------------------------------------------------




----------------------------------------- Iteration    1(  17)  ---------------------------------------


    POTLOK:  cpu time    0.0130: real time    0.0142
    SETDIJ:  cpu time    0.0050: real time    0.0041
     EDDAV:  cpu time    4.0414: real time    4.0426
       DOS:  cpu time    0.0000: real time    0.0007
    CHARGE:  cpu time    0.1230: real time    0.1224
    MIXING:  cpu time    0.0010: real time    0.0012
    --------------------------------------------
      LOOP:  cpu time    4.1874: real time    4.1947

 eigenvalue-minimisations  :  3072
 total energy-change (2. order) :-0.4320244E-03  (-0.6704249E-04)
 number of electron     186.9999500 magnetization 
 augmentation part      116.0506815 magnetization 

 Broyden mixing:
  rms(total) = 0.36252E-02    rms(broyden)= 0.36239E-02
  rms(prec ) = 0.54123E-02
  weight for this iteration     100.00

 eigenvalues of (default mixing * dielectric matrix)
  average eigenvalue GAMMA=   1.0585
  2.7971  2.5146  1.7904  0.9461  0.9461  0.9131  0.6193  0.6193  0.3130  0.4396
  0.4124  0.3902

 Free energy of the ion-electron system (eV)
  ---------------------------------------------------
  alpha Z        PSCENC =       879.64192429
  Ewald energy   TEWEN  =     20512.56703569
  -Hartree energ DENC   =    -42082.78431222
  -exchange      EXHF   =         0.00000000
  -V(xc)+E(xc)   XCENC  =       724.93742106
  PAW double counting   =     17906.61934401   -20234.16021434
  entropy T*S    EENTRO =        -0.00320085
  eigenvalues    EBANDS =      -661.96711179
  atomic energy  EATOM  =     22881.81795645
  Solvation  Ediel_sol  =         0.00000000
  ---------------------------------------------------
  free energy    TOTEN  =       -73.33115771 eV

  energy without entropy =      -73.32795686  energy(sigma->0) =      -73.33009076


--------------------------------------------------------------------------------------------------------




----------------------------------------- Iteration    1(  18)  ---------------------------------------


    POTLOK:  cpu time    0.0140: real time    0.0141
    SETDIJ:  cpu time    0.0040: real time    0.0041
     EDDAV:  cpu time    4.0574: real time    4.0596
       DOS:  cpu time    0.0010: real time    0.0007
    CHARGE:  cpu time    0.1220: real time    0.1218
    MIXING:  cpu time    0.0020: real time    0.0013
    --------------------------------------------
      LOOP:  cpu time    4.2044: real time    4.2086

 eigenvalue-minimisations  :  3088
 total energy-change (2. order) :-0.2034858E-02  (-0.1234934E-03)
 number of electron     186.9999499 magnetization 
 augmentation part      116.0726858 magnetization 

 Broyden mixing:
  rms(total) = 0.47329E-02    rms(broyden)= 0.47325E-02
  rms(prec ) = 0.58225E-02
  weight for this iteration     100.00

 eigenvalues of (default mixing * dielectric matrix)
  average eigenvalue GAMMA=   1.0332
  2.7597  2.7597  1.8017  1.0352  0.8984  0.8984  0.6047  0.6047  0.3130  0.5092
  0.4474  0.4091  0.3900

 Free energy of the ion-electron system (eV)
  ---------------------------------------------------
  alpha Z        PSCENC =       879.64192429
  Ewald energy   TEWEN  =     20512.56703569
  -Hartree energ DENC   =    -42084.13071767
  -exchange      EXHF   =         0.00000000
  -V(xc)+E(xc)   XCENC  =       724.92758123
  PAW double counting   =     17903.57349873   -20230.68807361
  entropy T*S    EENTRO =        -0.00313147
  eigenvalues    EBANDS =      -661.03926620
  atomic energy  EATOM  =     22881.81795645
  Solvation  Ediel_sol  =         0.00000000
  ---------------------------------------------------
  free energy    TOTEN  =       -73.33319257 eV

  energy without entropy =      -73.33006110  energy(sigma->0) =      -73.33214874


--------------------------------------------------------------------------------------------------------




----------------------------------------- Iteration    1(  19)  ---------------------------------------


    POTLOK:  cpu time    0.0120: real time    0.0142
    SETDIJ:  cpu time    0.0050: real time    0.0041
     EDDAV:  cpu time    3.1425: real time    3.1431
       DOS:  cpu time    0.0000: real time    0.0007
    CHARGE:  cpu time    0.1220: real time    0.1224
    MIXING:  cpu time    0.0020: real time    0.0014
    --------------------------------------------
      LOOP:  cpu time    3.2875: real time    3.2930

 eigenvalue-minimisations  :  2144
 total energy-change (2. order) :-0.5102868E-03  (-0.1840329E-04)
 number of electron     186.9999500 magnetization 
 augmentation part      116.0684426 magnetization 

 Broyden mixing:
  rms(total) = 0.32776E-02    rms(broyden)= 0.32775E-02
  rms(prec ) = 0.40465E-02
  weight for this iteration     100.00

 eigenvalues of (default mixing * dielectric matrix)
  average eigenvalue GAMMA=   1.0806
  3.4812  2.6191  1.8088  1.3433  0.9395  0.9395  0.8216  0.6270  0.6270  0.3130
  0.4421  0.4143  0.3902  0.3617

 Free energy of the ion-electron system (eV)
  ---------------------------------------------------
  alpha Z        PSCENC =       879.64192429
  Ewald energy   TEWEN  =     20512.56703569
  -Hartree energ DENC   =    -42084.75986730
  -exchange      EXHF   =         0.00000000
  -V(xc)+E(xc)   XCENC  =       724.93836793
  PAW double counting   =     17903.49105323   -20230.66602487
  entropy T*S    EENTRO =        -0.00315948
  eigenvalues    EBANDS =      -660.36098879
  atomic energy  EATOM  =     22881.81795645
  Solvation  Ediel_sol  =         0.00000000
  ---------------------------------------------------
  free energy    TOTEN  =       -73.33370285 eV

  energy without entropy =      -73.33054337  energy(sigma->0) =      -73.33264969


--------------------------------------------------------------------------------------------------------




----------------------------------------- Iteration    1(  20)  ---------------------------------------


    POTLOK:  cpu time    0.0140: real time    0.0141
    SETDIJ:  cpu time    0.0040: real time    0.0041
     EDDAV:  cpu time    3.2315: real time    3.2314
       DOS:  cpu time    0.0010: real time    0.0007
    CHARGE:  cpu time    0.1220: real time    0.1228
    MIXING:  cpu time    0.0020: real time    0.0015
    --------------------------------------------
      LOOP:  cpu time    3.3775: real time    3.3820

 eigenvalue-minimisations  :  2256
 total energy-change (2. order) :-0.5480046E-03  (-0.2602177E-04)
 number of electron     186.9999499 magnetization 
 augmentation part      116.0571636 magnetization 

 Broyden mixing:
  rms(total) = 0.11956E-02    rms(broyden)= 0.11951E-02
  rms(prec ) = 0.16767E-02
  weight for this iteration     100.00

 eigenvalues of (default mixing * dielectric matrix)
  average eigenvalue GAMMA=   1.1699
  4.2421  2.7888  2.1817  0.9856  0.9856  1.1940  1.0002  1.0002  0.6264  0.6264
  0.3130  0.4426  0.4134  0.3924  0.3562

 Free energy of the ion-electron system (eV)
  ---------------------------------------------------
  alpha Z        PSCENC =       879.64192429
  Ewald energy   TEWEN  =     20512.56703569
  -Hartree energ DENC   =    -42085.63441160
  -exchange      EXHF   =         0.00000000
  -V(xc)+E(xc)   XCENC  =       724.95674049
  PAW double counting   =     17903.71804329   -20231.05382319
  entropy T*S    EENTRO =        -0.00316222
  eigenvalues    EBANDS =      -659.34455405
  atomic energy  EATOM  =     22881.81795645
  Solvation  Ediel_sol  =         0.00000000
  ---------------------------------------------------
  free energy    TOTEN  =       -73.33425086 eV

  energy without entropy =      -73.33108864  energy(sigma->0) =      -73.33319678


--------------------------------------------------------------------------------------------------------




----------------------------------------- Iteration    1(  21)  ---------------------------------------


    POTLOK:  cpu time    0.0140: real time    0.0142
    SETDIJ:  cpu time    0.0040: real time    0.0041
     EDDAV:  cpu time    3.3215: real time    3.3225
       DOS:  cpu time    0.0010: real time    0.0007
    CHARGE:  cpu time    0.1250: real time    0.1244
    MIXING:  cpu time    0.0010: real time    0.0015
    --------------------------------------------
      LOOP:  cpu time    3.4695: real time    3.4746

 eigenvalue-minimisations  :  2336
 total energy-change (2. order) :-0.3413805E-03  (-0.1311432E-04)
 number of electron     186.9999499 magnetization 
 augmentation part      116.0590118 magnetization 

 Broyden mixing:
  rms(total) = 0.84588E-03    rms(broyden)= 0.84572E-03
  rms(prec ) = 0.10469E-02
  weight for this iteration     100.00

 eigenvalues of (default mixing * dielectric matrix)
  average eigenvalue GAMMA=   1.1879
  4.8016  2.7648  2.3448  1.3073  1.3073  0.9601  0.9601  0.8932  0.6262  0.6262
  0.5051  0.3130  0.4407  0.4141  0.3932  0.3483

 Free energy of the ion-electron system (eV)
  ---------------------------------------------------
  alpha Z        PSCENC =       879.64192429
  Ewald energy   TEWEN  =     20512.56703569
  -Hartree energ DENC   =    -42085.98907424
  -exchange      EXHF   =         0.00000000
  -V(xc)+E(xc)   XCENC  =       724.95335395
  PAW double counting   =     17903.24718324   -20230.55600160
  entropy T*S    EENTRO =        -0.00316095
  eigenvalues    EBANDS =      -659.01380907
  atomic energy  EATOM  =     22881.81795645
  Solvation  Ediel_sol  =         0.00000000
  ---------------------------------------------------
  free energy    TOTEN  =       -73.33459224 eV

  energy without entropy =      -73.33143129  energy(sigma->0) =      -73.33353859


--------------------------------------------------------------------------------------------------------




----------------------------------------- Iteration    1(  22)  ---------------------------------------


    POTLOK:  cpu time    0.0130: real time    0.0142
    SETDIJ:  cpu time    0.0040: real time    0.0041
     EDDAV:  cpu time    3.1015: real time    3.1022
       DOS:  cpu time    0.0000: real time    0.0006
    --------------------------------------------
      LOOP:  cpu time    3.1235: real time    3.1281

 eigenvalue-minimisations  :  2096
 total energy-change (2. order) :-0.5153297E-04  (-0.2319491E-05)
 number of electron     186.9999499 magnetization 
 augmentation part      116.0590118 magnetization 

 Free energy of the ion-electron system (eV)
  ---------------------------------------------------
  alpha Z        PSCENC =       879.64192429
  Ewald energy   TEWEN  =     20512.56703569
  -Hartree energ DENC   =    -42086.14269033
  -exchange      EXHF   =         0.00000000
  -V(xc)+E(xc)   XCENC  =       724.95260231
  PAW double counting   =     17903.35947405   -20230.67837396
  entropy T*S    EENTRO =        -0.00315566
  eigenvalues    EBANDS =      -658.84941663
  atomic energy  EATOM  =     22881.81795645
  Solvation  Ediel_sol  =         0.00000000
  ---------------------------------------------------
  free energy    TOTEN  =       -73.33464377 eV

  energy without entropy =      -73.33148811  energy(sigma->0) =      -73.33359188


--------------------------------------------------------------------------------------------------------




 average (electrostatic) potential at core
  the test charge radii are     1.0053  0.6991  0.7215  0.5201
  (the norm of the test charge is              1.0000)
       1 -44.1058       2 -43.7358       3 -43.7308       4 -44.0899       5 -44.1146
       6 -44.0866       7 -43.7385       8 -44.0946       9 -44.0913      10 -43.7511
      11 -43.7479      12 -44.0538      13 -44.1154      14 -44.3921      15 -43.7432
      16 -44.0418      17 -58.3396      18 -78.1108      19 -38.9500
 
 
 
 E-fermi :  -0.2455     XC(G=0):  -7.7503     alpha+bet : -5.0259


 k-point     1 :       0.0000    0.0000    0.0000
  band No.  band energies     occupation 
      1     -22.8493      2.00000
      2     -11.4082      2.00000
      3      -8.9440      2.00000
      4      -7.8073      2.00000
      5      -7.4741      2.00000
      6      -6.6574      2.00000
      7      -6.2727      2.00000
      8      -5.2660      2.00000
      9      -5.1613      2.00000
     10      -5.1440      2.00000
     11      -5.1359      2.00000
[...]
 17Z    -5.923914  -24.209553  -41.679371    7.429173   27.614822   33.246499   -1.699872   -4.932498    6.560433
 18X     4.675908    8.266201    7.340705   -3.716658   -9.529172   -8.602255   -0.442184    1.589699    0.924946
 18Y     8.127926   31.764383   27.739471   -9.759518  -36.468946  -32.889660    1.393319    4.693861    3.316471
 18Z     8.147794   32.404181   33.340703   -8.807102  -32.751889  -35.346609    0.471995    1.226894   -1.150857
 19X     2.952379    3.993944   -1.746148   -0.439871    1.464623    0.509893   -2.261627   -5.141282    1.698703
 19Y     3.259490   12.561347   -5.181526    1.663723    4.882479    1.388129   -5.268332  -17.225937    5.313230
 19Z    -2.457910   -8.660342    6.637804    0.922131    3.247505   -1.172837    1.692842    5.137018   -6.310256
 
 
 Eigenvectors and eigenvalues of the dynamical matrix
 ----------------------------------------------------
 
 
   1 f  =   73.771277 THz   463.518602 2PiTHz 2460.744843 cm-1   305.093586 meV
             X         Y         Z           dx          dy          dz
      0.000149  0.006794  2.772739            0           0           0  
      0.000989  0.000931  6.323516            0           0           0  
      1.277996  1.277998  0.999969            0           0           0  
      1.307257  1.266407  4.636842            0           0           0  
      2.556046  0.002142  2.765337            0           0           0  
      2.546414  5.008995  6.470307            0           0           0  
      3.833996  1.277998  0.999969            0           0           0  
      3.793042  1.257950  4.635615            0           0           0  
      0.000093  2.555893  2.790012            0           0           0  
      5.099231  2.554988  6.323704            0           0           0  
      1.277992  3.833998  0.999969            0           0           0  
      1.280205  3.825659  4.577362            0           0           0  
      2.556093  2.560085  2.773202            0           0           0  
      2.565958  2.547504  6.457231            0           0           0  
      3.833992  3.833998  0.999969            0           0           0  
      3.828290  3.825272  4.573322            0           0           0  
      2.546191  3.652113  8.141990    -0.066874   -0.224669    0.087679  
      2.774983  4.505877  8.984346    -0.006500   -0.023495   -0.005859  
      2.226287  2.611100  8.512488     0.271902    0.857369   -0.357384  
 
   2 f  =   49.024043 THz   308.027147 2PiTHz 1635.266007 cm-1   202.747218 meV
             X         Y         Z           dx          dy          dz
      0.000149  0.006794  2.772739            0           0           0  
      0.000989  0.000931  6.323516            0           0           0  
      1.277996  1.277998  0.999969            0           0           0  
      1.307257  1.266407  4.636842            0           0           0  
      2.556046  0.002142  2.765337            0           0           0  
      2.546414  5.008995  6.470307            0           0           0  
      3.833996  1.277998  0.999969            0           0           0  
      3.793042  1.257950  4.635615            0           0           0  
      0.000093  2.555893  2.790012            0           0           0  
      5.099231  2.554988  6.323704            0           0           0  
      1.277992  3.833998  0.999969            0           0           0  
      1.280205  3.825659  4.577362            0           0           0  
      2.556093  2.560085  2.773202            0           0           0  
      2.565958  2.547504  6.457231            0           0           0  
      3.833992  3.833998  0.999969            0           0           0  
      3.828290  3.825272  4.573322            0           0           0  
      2.546191  3.652113  8.141990    -0.140066   -0.516444   -0.510266  
      2.774983  4.505877  8.984346     0.125521    0.458903    0.463920  
      2.226287  2.611100  8.512488    -0.017989   -0.093314   -0.051922  
 
   3 f  =   35.450436 THz   222.741661 2PiTHz 1182.499240 cm-1   146.611273 meV
             X         Y         Z           dx          dy          dz
      0.000149  0.006794  2.772739            0           0           0  
      0.000989  0.000931  6.323516            0           0           0  
      1.277996  1.277998  0.999969            0           0           0  
      1.307257  1.266407  4.636842            0           0           0  
      2.556046  0.002142  2.765337            0           0           0  
      2.546414  5.008995  6.470307            0           0           0  
      3.833996  1.277998  0.999969            0           0           0  
      3.793042  1.257950  4.635615            0           0           0  
      0.000093  2.555893  2.790012            0           0           0  
      5.099231  2.554988  6.323704            0           0           0  
      1.277992  3.833998  0.999969            0           0           0  
      1.280205  3.825659  4.577362            0           0           0  
      2.556093  2.560085  2.773202            0           0           0  
      2.565958  2.547504  6.457231            0           0           0  
      3.833992  3.833998  0.999969            0           0           0  
      3.828290  3.825272  4.573322            0           0           0  
      2.546191  3.652113  8.141990     0.033987    0.102050   -0.354332  
      2.774983  4.505877  8.984346    -0.054866   -0.182865    0.099898  
      2.226287  2.611100  8.512488     0.094297    0.371971    0.818044  
 
   4 f  =   16.746668 THz   105.222416 2PiTHz  558.608687 cm-1    69.258675 meV
             X         Y         Z           dx          dy          dz
      0.000149  0.006794  2.772739            0           0           0  
      0.000989  0.000931  6.323516            0           0           0  
      1.277996  1.277998  0.999969            0           0           0  
      1.307257  1.266407  4.636842            0           0           0  
      2.556046  0.002142  2.765337            0           0           0  
      2.546414  5.008995  6.470307            0           0           0  
      3.833996  1.277998  0.999969            0           0           0  
      3.793042  1.257950  4.635615            0           0           0  
      0.000093  2.555893  2.790012            0           0           0  
      5.099231  2.554988  6.323704            0           0           0  
      1.277992  3.833998  0.999969            0           0           0  
      1.280205  3.825659  4.577362            0           0           0  
      2.556093  2.560085  2.773202            0           0           0  
      2.565958  2.547504  6.457231            0           0           0  
      3.833992  3.833998  0.999969            0           0           0  
      3.828290  3.825272  4.573322            0           0           0  
      2.546191  3.652113  8.141990    -0.620731    0.086653    0.044750  
      2.774983  4.505877  8.984346     0.235881   -0.063095   -0.054118  
      2.226287  2.611100  8.512488     0.698400   -0.225170    0.064569  
 
   5 f  =    7.267147 THz    45.660829 2PiTHz  242.405914 cm-1    30.054514 meV
             X         Y         Z           dx          dy          dz
      0.000149  0.006794  2.772739            0           0           0  
      0.000989  0.000931  6.323516            0           0           0  
      1.277996  1.277998  0.999969            0           0           0  
      1.307257  1.266407  4.636842            0           0           0  
      2.556046  0.002142  2.765337            0           0           0  
      2.546414  5.008995  6.470307            0           0           0  
      3.833996  1.277998  0.999969            0           0           0  
      3.793042  1.257950  4.635615            0           0           0  
      0.000093  2.555893  2.790012            0           0           0  
      5.099231  2.554988  6.323704            0           0           0  
      1.277992  3.833998  0.999969            0           0           0  
      1.280205  3.825659  4.577362            0           0           0  
      2.556093  2.560085  2.773202            0           0           0  
      2.565958  2.547504  6.457231            0           0           0  
      3.833992  3.833998  0.999969            0           0           0  
      3.828290  3.825272  4.573322            0           0           0  
      2.546191  3.652113  8.141990     0.028669    0.031648    0.702156  
      2.774983  4.505877  8.984346     0.026643    0.229041    0.620916  
      2.226287  2.611100  8.512488     0.027804    0.045736    0.252156  
 
   6 f  =    3.072712 THz    19.306420 2PiTHz  102.494640 cm-1    12.707720 meV
             X         Y         Z           dx          dy          dz
      0.000149  0.006794  2.772739            0           0           0  
      0.000989  0.000931  6.323516            0           0           0  
      1.277996  1.277998  0.999969            0           0           0  
      1.307257  1.266407  4.636842            0           0           0  
      2.556046  0.002142  2.765337            0           0           0  
      2.546414  5.008995  6.470307            0           0           0  
      3.833996  1.277998  0.999969            0           0           0  
      3.793042  1.257950  4.635615            0           0           0  
      0.000093  2.555893  2.790012            0           0           0  
      5.099231  2.554988  6.323704            0           0           0  
      1.277992  3.833998  0.999969            0           0           0  
      1.280205  3.825659  4.577362            0           0           0  
      2.556093  2.560085  2.773202            0           0           0  
      2.565958  2.547504  6.457231            0           0           0  
      3.833992  3.833998  0.999969            0           0           0  
      3.828290  3.825272  4.573322            0           0           0  
      2.546191  3.652113  8.141990     0.674305   -0.365198    0.028217  
      2.774983  4.505877  8.984346     0.210123   -0.301492    0.048232  
      2.226287  2.611100  8.512488     0.482445   -0.202411    0.006999  
 
   7 f  =    2.403079 THz    15.098991 2PiTHz   80.158085 cm-1     9.938339 meV
             X         Y         Z           dx          dy          dz
      0.000149  0.006794  2.772739            0           0           0  
      0.000989  0.000931  6.323516            0           0           0  
      1.277996  1.277998  0.999969            0           0           0  
      1.307257  1.266407  4.636842            0           0           0  
      2.556046  0.002142  2.765337            0           0           0  
      2.546414  5.008995  6.470307            0           0           0  
      3.833996  1.277998  0.999969            0           0           0  
      3.793042  1.257950  4.635615            0           0           0  
      0.000093  2.555893  2.790012            0           0           0  
      5.099231  2.554988  6.323704            0           0           0  
      1.277992  3.833998  0.999969            0           0           0  
      1.280205  3.825659  4.577362            0           0           0  
      2.556093  2.560085  2.773202            0           0           0  
      2.565958  2.547504  6.457231            0           0           0  
      3.833992  3.833998  0.999969            0           0           0  
      3.828290  3.825272  4.573322            0           0           0  
      2.546191  3.652113  8.141990    -0.342986   -0.404292    0.073459  
      2.774983  4.505877  8.984346    -0.188765   -0.726259    0.263662  
      2.226287  2.611100  8.512488    -0.266663   -0.091214   -0.038488  
 
   8 f/i=    0.966136 THz     6.070412 2PiTHz   32.226831 cm-1     3.995619 meV
             X         Y         Z           dx          dy          dz
      0.000149  0.006794  2.772739            0           0           0  
      0.000989  0.000931  6.323516            0           0           0  
      1.277996  1.277998  0.999969            0           0           0  
      1.307257  1.266407  4.636842            0           0           0  
      2.556046  0.002142  2.765337            0           0           0  
      2.546414  5.008995  6.470307            0           0           0  
      3.833996  1.277998  0.999969            0           0           0  
      3.793042  1.257950  4.635615            0           0           0  
      0.000093  2.555893  2.790012            0           0           0  
      5.099231  2.554988  6.323704            0           0           0  
      1.277992  3.833998  0.999969            0           0           0  
      1.280205  3.825659  4.577362            0           0           0  
      2.556093  2.560085  2.773202            0           0           0  
      2.565958  2.547504  6.457231            0           0           0  
      3.833992  3.833998  0.999969            0           0           0  
      3.828290  3.825272  4.573322            0           0           0  
      2.546191  3.652113  8.141990    -0.028615    0.134725   -0.018695  
      2.774983  4.505877  8.984346     0.910560   -0.176616    0.058730  
      2.226287  2.611100  8.512488    -0.316690    0.125446   -0.029834  
 
   9 f/i=    6.124551 THz    38.481687 2PiTHz  204.293017 cm-1    25.329115 meV
             X         Y         Z           dx          dy          dz
      0.000149  0.006794  2.772739            0           0           0  
      0.000989  0.000931  6.323516            0           0           0  
      1.277996  1.277998  0.999969            0           0           0  
      1.307257  1.266407  4.636842            0           0           0  
      2.556046  0.002142  2.765337            0           0           0  
      2.546414  5.008995  6.470307            0           0           0  
      3.833996  1.277998  0.999969            0           0           0  
      3.793042  1.257950  4.635615            0           0           0  
      0.000093  2.555893  2.790012            0           0           0  
      5.099231  2.554988  6.323704            0           0           0  
      1.277992  3.833998  0.999969            0           0           0  
      1.280205  3.825659  4.577362            0           0           0  
      2.556093  2.560085  2.773202            0           0           0  
      2.565958  2.547504  6.457231            0           0           0  
      3.833992  3.833998  0.999969            0           0           0  
      3.828290  3.825272  4.573322            0           0           0  
      2.546191  3.652113  8.141990     0.124423    0.590688   -0.323763  
      2.774983  4.505877  8.984346    -0.126251   -0.222337    0.557679  
      2.226287  2.611100  8.512488     0.155447   -0.005352   -0.360850  
 
 Finite differences POTIM=  5.000000000000000E-002
  LATTYP: Found a simple tetragonal cell.
 ALAT       =     5.1119999886
 C/A-ratio  =     3.0168427429
  
  Lattice vectors:
  
 A1 = (   5.1119999886,   0.0000000000,   0.0000000000)
 A2 = (  -0.0000088492,   5.1119999885,   0.0000000000)
 A3 = (  -0.0000266965,  -0.0000266965,  15.4221000671)


Analysis of symmetry for initial positions (statically):
=====================================================================
 Subroutine PRICEL returns:
 Original cell was already a primitive cell.
 

 Routine SETGRP: Setting up the symmetry group for a 
 simple tetragonal supercell.


 Subroutine GETGRP returns: Found  1 space group operations
 (whereof  1 operations were pure point group operations)
 out of a pool of 16 trial point group operations.


The static configuration has the point symmetry C_1 .


Analysis of symmetry for dynamics (positions and initial velocities):
=====================================================================
 Subroutine PRICEL returns:
 Original cell was already a primitive cell.
 

 Routine SETGRP: Setting up the symmetry group for a 
 simple tetragonal supercell.


 Subroutine GETGRP returns: Found  1 space group operations
 (whereof  1 operations were pure point group operations)
 out of a pool of 16 trial point group operations.


The dynamic configuration has the point symmetry C_1 .


Analysis of constrained symmetry for selective dynamics:
=====================================================================
 Subroutine PRICEL returns:
 Original cell was already a primitive cell.
 

 Routine SETGRP: Setting up the symmetry group for a 
 simple tetragonal supercell.


 Subroutine GETGRP returns: Found  1 space group operations
 (whereof  1 operations were pure point group operations)
 out of a pool of 16 trial point group operations.


The constrained configuration has the point symmetry C_1 .


 Subroutine INISYM returns: Found  1 space group operations
 (whereof  1 operations are pure point group operations),
 and found     1 'primitive' translations

 
 KPOINTS: auto                                    

Automatic generation of k-mesh.
Space group operators:
 irot       det(A)        alpha          n_x          n_y          n_z        tau_x        tau_y        tau_z
    1     1.000000     0.000000     1.000000     0.000000     0.000000     0.000000     0.000000     0.000000
 
 Subroutine IBZKPT returns following result:
 ===========================================
 
 Found     13 irreducible k-points:
 
 Following reciprocal coordinates:
            Coordinates               Weight
  0.000000  0.000000  0.000000      1.000000
  0.200000 -0.000000 -0.000000      2.000000
  0.400000 -0.000000 -0.000000      2.000000
  0.000000  0.200000  0.000000      2.000000
  0.200000  0.200000  0.000000      2.000000
  0.400000  0.200000  0.000000      2.000000
 -0.400000  0.200000  0.000000      2.000000
 -0.200000  0.200000  0.000000      2.000000
  0.000000  0.400000  0.000000      2.000000
  0.200000  0.400000 -0.000000      2.000000
  0.400000  0.400000  0.000000      2.000000
 -0.400000  0.400000  0.000000      2.000000
 -0.200000  0.400000 -0.000000      2.000000
 
 Following cartesian coordinates:
            Coordinates               Weight
  0.000000  0.000000  0.000000      1.000000
  0.039124  0.000000  0.000000      2.000000
  0.078247  0.000000  0.000000      2.000000
  0.000000  0.039124  0.000000      2.000000
  0.039124  0.039124  0.000000      2.000000
  0.078247  0.039124  0.000000      2.000000
 -0.078247  0.039123 -0.000000      2.000000
 -0.039124  0.039124 -0.000000      2.000000
  0.000000  0.078247  0.000000      2.000000
  0.039124  0.078247  0.000000      2.000000
  0.078247  0.078247  0.000000      2.000000
 -0.078247  0.078247 -0.000000      2.000000
 -0.039124  0.078247  0.000000      2.000000
 
     LOOP+:  cpu time   29.7415: real time   29.9417
    4ORBIT:  cpu time    0.0000: real time    0.0000

 total amount of memory used by VASP on root node    50122. kBytes
========================================================================

   base      :      30000. kBytes
   nonlr-proj:       4113. kBytes
   fftplans  :        813. kBytes
   grid      :       3696. kBytes
   one-center:        295. kBytes
   wavefun   :      11205. kBytes
 
  
  
 General timing and accounting informations for this job:
 ========================================================
  
                  Total CPU time used (sec):      728.497
                            User time (sec):      722.348
                          System time (sec):        6.149
                         Elapsed time (sec):      731.534
  
                   Maximum memory used (kb):      114236.
                   Average memory used (kb):           0.
  
                          Minor page faults:        17585
                          Major page faults:          122
                 Voluntary context switches:         4845
